500
Atoms. Timestep: 0
1 0 0 0
1 2.85 2.85 0
1 2.85 0 2.85
1 0 2.85 2.85
1 5.7 0 0
1 8.55 2.85 0
1 8.55 0 2.85
1 5.7 2.85 2.85
1 11.4 0 0
1 14.25 2.85 0
1 14.25 0 2.85
1 11.4 2.85 2.85
1 17.1 0 0
1 19.95 2.85 0
1 19.95 0 2.85
1 17.1 2.85 2.85
1 22.8 0 0
1 25.65 2.85 0
1 25.65 0 2.85
1 22.8 2.85 2.85
1 0 5.7 0
1 2.85 8.55 0
1 2.85 5.7 2.85
1 0 8.55 2.85
1 5.7 5.7 0
1 8.55 8.55 0
1 8.55 5.7 2.85
1 5.7 8.55 2.85
1 11.4 5.7 0
1 14.25 8.55 0
1 14.25 5.7 2.85
1 11.4 8.55 2.85
1 17.1 5.7 0
1 19.95 8.55 0
1 19.95 5.7 2.85
1 17.1 8.55 2.85
1 22.8 5.7 0
1 25.65 8.55 0
1 25.65 5.7 2.85
1 22.8 8.55 2.85
1 0 11.4 0
1 2.85 14.25 0
1 2.85 11.4 2.85
1 0 14.25 2.85
1 5.7 11.4 0
1 8.55 14.25 0
1 8.55 11.4 2.85
1 5.7 14.25 2.85
1 11.4 11.4 0
1 14.25 14.25 0
1 14.25 11.4 2.85
1 11.4 14.25 2.85
1 17.1 11.4 0
1 19.95 14.25 0
1 19.95 11.4 2.85
1 17.1 14.25 2.85
1 22.8 11.4 0
1 25.65 14.25 0
1 25.65 11.4 2.85
1 22.8 14.25 2.85
1 0 17.1 0
1 2.85 19.95 0
1 2.85 17.1 2.85
1 0 19.95 2.85
1 5.7 17.1 0
1 8.55 19.95 0
1 8.55 17.1 2.85
1 5.7 19.95 2.85
1 11.4 17.1 0
1 14.25 19.95 0
1 14.25 17.1 2.85
1 11.4 19.95 2.85
1 17.1 17.1 0
1 19.95 19.95 0
1 19.95 17.1 2.85
1 17.1 19.95 2.85
1 22.8 17.1 0
1 25.65 19.95 0
1 25.65 17.1 2.85
1 22.8 19.95 2.85
1 0 22.8 0
1 2.85 25.65 0
1 2.85 22.8 2.85
1 0 25.65 2.85
1 5.7 22.8 0
1 8.55 25.65 0
1 8.55 22.8 2.85
1 5.7 25.65 2.85
1 11.4 22.8 0
1 14.25 25.65 0
1 14.25 22.8 2.85
1 11.4 25.65 2.85
1 17.1 22.8 0
1 19.95 25.65 0
1 19.95 22.8 2.85
1 17.1 25.65 2.85
1 22.8 22.8 0
1 25.65 25.65 0
1 25.65 22.8 2.85
1 22.8 25.65 2.85
1 0 0 5.7
1 2.85 2.85 5.7
1 2.85 0 8.55
1 0 2.85 8.55
1 5.7 0 5.7
1 8.55 2.85 5.7
1 8.55 0 8.55
1 5.7 2.85 8.55
1 11.4 0 5.7
1 14.25 2.85 5.7
1 14.25 0 8.55
1 11.4 2.85 8.55
1 17.1 0 5.7
1 19.95 2.85 5.7
1 19.95 0 8.55
1 17.1 2.85 8.55
1 22.8 0 5.7
1 25.65 2.85 5.7
1 25.65 0 8.55
1 22.8 2.85 8.55
1 0 5.7 5.7
1 2.85 8.55 5.7
1 2.85 5.7 8.55
1 0 8.55 8.55
1 5.7 5.7 5.7
1 8.55 8.55 5.7
1 8.55 5.7 8.55
1 5.7 8.55 8.55
1 11.4 5.7 5.7
1 14.25 8.55 5.7
1 14.25 5.7 8.55
1 11.4 8.55 8.55
1 17.1 5.7 5.7
1 19.95 8.55 5.7
1 19.95 5.7 8.55
1 17.1 8.55 8.55
1 22.8 5.7 5.7
1 25.65 8.55 5.7
1 25.65 5.7 8.55
1 22.8 8.55 8.55
1 0 11.4 5.7
1 2.85 14.25 5.7
1 2.85 11.4 8.55
1 0 14.25 8.55
1 5.7 11.4 5.7
1 8.55 14.25 5.7
1 8.55 11.4 8.55
1 5.7 14.25 8.55
1 11.4 11.4 5.7
1 14.25 14.25 5.7
1 14.25 11.4 8.55
1 11.4 14.25 8.55
1 17.1 11.4 5.7
1 19.95 14.25 5.7
1 19.95 11.4 8.55
1 17.1 14.25 8.55
1 22.8 11.4 5.7
1 25.65 14.25 5.7
1 25.65 11.4 8.55
1 22.8 14.25 8.55
1 0 17.1 5.7
1 2.85 19.95 5.7
1 2.85 17.1 8.55
1 0 19.95 8.55
1 5.7 17.1 5.7
1 8.55 19.95 5.7
1 8.55 17.1 8.55
1 5.7 19.95 8.55
1 11.4 17.1 5.7
1 14.25 19.95 5.7
1 14.25 17.1 8.55
1 11.4 19.95 8.55
1 17.1 17.1 5.7
1 19.95 19.95 5.7
1 19.95 17.1 8.55
1 17.1 19.95 8.55
1 22.8 17.1 5.7
1 25.65 19.95 5.7
1 25.65 17.1 8.55
1 22.8 19.95 8.55
1 0 22.8 5.7
1 2.85 25.65 5.7
1 2.85 22.8 8.55
1 0 25.65 8.55
1 5.7 22.8 5.7
1 8.55 25.65 5.7
1 8.55 22.8 8.55
1 5.7 25.65 8.55
1 11.4 22.8 5.7
1 14.25 25.65 5.7
1 14.25 22.8 8.55
1 11.4 25.65 8.55
1 17.1 22.8 5.7
1 19.95 25.65 5.7
1 19.95 22.8 8.55
1 17.1 25.65 8.55
1 22.8 22.8 5.7
1 25.65 25.65 5.7
1 25.65 22.8 8.55
1 22.8 25.65 8.55
1 0 0 11.4
1 2.85 2.85 11.4
1 2.85 0 14.25
1 0 2.85 14.25
1 5.7 0 11.4
1 8.55 2.85 11.4
1 8.55 0 14.25
1 5.7 2.85 14.25
1 11.4 0 11.4
1 14.25 2.85 11.4
1 14.25 0 14.25
1 11.4 2.85 14.25
1 17.1 0 11.4
1 19.95 2.85 11.4
1 19.95 0 14.25
1 17.1 2.85 14.25
1 22.8 0 11.4
1 25.65 2.85 11.4
1 25.65 0 14.25
1 22.8 2.85 14.25
1 0 5.7 11.4
1 2.85 8.55 11.4
1 2.85 5.7 14.25
1 0 8.55 14.25
1 5.7 5.7 11.4
1 8.55 8.55 11.4
1 8.55 5.7 14.25
1 5.7 8.55 14.25
1 11.4 5.7 11.4
1 14.25 8.55 11.4
1 14.25 5.7 14.25
1 11.4 8.55 14.25
1 17.1 5.7 11.4
1 19.95 8.55 11.4
1 19.95 5.7 14.25
1 17.1 8.55 14.25
1 22.8 5.7 11.4
1 25.65 8.55 11.4
1 25.65 5.7 14.25
1 22.8 8.55 14.25
1 0 11.4 11.4
1 2.85 14.25 11.4
1 2.85 11.4 14.25
1 0 14.25 14.25
1 5.7 11.4 11.4
1 8.55 14.25 11.4
1 8.55 11.4 14.25
1 5.7 14.25 14.25
1 11.4 11.4 11.4
1 14.25 14.25 11.4
1 14.25 11.4 14.25
1 11.4 14.25 14.25
1 17.1 11.4 11.4
1 19.95 14.25 11.4
1 19.95 11.4 14.25
1 17.1 14.25 14.25
1 22.8 11.4 11.4
1 25.65 14.25 11.4
1 25.65 11.4 14.25
1 22.8 14.25 14.25
1 0 17.1 11.4
1 2.85 19.95 11.4
1 2.85 17.1 14.25
1 0 19.95 14.25
1 5.7 17.1 11.4
1 8.55 19.95 11.4
1 8.55 17.1 14.25
1 5.7 19.95 14.25
1 11.4 17.1 11.4
1 14.25 19.95 11.4
1 14.25 17.1 14.25
1 11.4 19.95 14.25
1 17.1 17.1 11.4
1 19.95 19.95 11.4
1 19.95 17.1 14.25
1 17.1 19.95 14.25
1 22.8 17.1 11.4
1 25.65 19.95 11.4
1 25.65 17.1 14.25
1 22.8 19.95 14.25
1 0 22.8 11.4
1 2.85 25.65 11.4
1 2.85 22.8 14.25
1 0 25.65 14.25
1 5.7 22.8 11.4
1 8.55 25.65 11.4
1 8.55 22.8 14.25
1 5.7 25.65 14.25
1 11.4 22.8 11.4
1 14.25 25.65 11.4
1 14.25 22.8 14.25
1 11.4 25.65 14.25
1 17.1 22.8 11.4
1 19.95 25.65 11.4
1 19.95 22.8 14.25
1 17.1 25.65 14.25
1 22.8 22.8 11.4
1 25.65 25.65 11.4
1 25.65 22.8 14.25
1 22.8 25.65 14.25
1 0 0 17.1
1 2.85 2.85 17.1
1 2.85 0 19.95
1 0 2.85 19.95
1 5.7 0 17.1
1 8.55 2.85 17.1
1 8.55 0 19.95
1 5.7 2.85 19.95
1 11.4 0 17.1
1 14.25 2.85 17.1
1 14.25 0 19.95
1 11.4 2.85 19.95
1 17.1 0 17.1
1 19.95 2.85 17.1
1 19.95 0 19.95
1 17.1 2.85 19.95
1 22.8 0 17.1
1 25.65 2.85 17.1
1 25.65 0 19.95
1 22.8 2.85 19.95
1 0 5.7 17.1
1 2.85 8.55 17.1
1 2.85 5.7 19.95
1 0 8.55 19.95
1 5.7 5.7 17.1
1 8.55 8.55 17.1
1 8.55 5.7 19.95
1 5.7 8.55 19.95
1 11.4 5.7 17.1
1 14.25 8.55 17.1
1 14.25 5.7 19.95
1 11.4 8.55 19.95
1 17.1 5.7 17.1
1 19.95 8.55 17.1
1 19.95 5.7 19.95
1 17.1 8.55 19.95
1 22.8 5.7 17.1
1 25.65 8.55 17.1
1 25.65 5.7 19.95
1 22.8 8.55 19.95
1 0 11.4 17.1
1 2.85 14.25 17.1
1 2.85 11.4 19.95
1 0 14.25 19.95
1 5.7 11.4 17.1
1 8.55 14.25 17.1
1 8.55 11.4 19.95
1 5.7 14.25 19.95
1 11.4 11.4 17.1
1 14.25 14.25 17.1
1 14.25 11.4 19.95
1 11.4 14.25 19.95
1 17.1 11.4 17.1
1 19.95 14.25 17.1
1 19.95 11.4 19.95
1 17.1 14.25 19.95
1 22.8 11.4 17.1
1 25.65 14.25 17.1
1 25.65 11.4 19.95
1 22.8 14.25 19.95
1 0 17.1 17.1
1 2.85 19.95 17.1
1 2.85 17.1 19.95
1 0 19.95 19.95
1 5.7 17.1 17.1
1 8.55 19.95 17.1
1 8.55 17.1 19.95
1 5.7 19.95 19.95
1 11.4 17.1 17.1
1 14.25 19.95 17.1
1 14.25 17.1 19.95
1 11.4 19.95 19.95
1 17.1 17.1 17.1
1 19.95 19.95 17.1
1 19.95 17.1 19.95
1 17.1 19.95 19.95
1 22.8 17.1 17.1
1 25.65 19.95 17.1
1 25.65 17.1 19.95
1 22.8 19.95 19.95
1 0 22.8 17.1
1 2.85 25.65 17.1
1 2.85 22.8 19.95
1 0 25.65 19.95
1 5.7 22.8 17.1
1 8.55 25.65 17.1
1 8.55 22.8 19.95
1 5.7 25.65 19.95
1 11.4 22.8 17.1
1 14.25 25.65 17.1
1 14.25 22.8 19.95
1 11.4 25.65 19.95
1 17.1 22.8 17.1
1 19.95 25.65 17.1
1 19.95 22.8 19.95
1 17.1 25.65 19.95
1 22.8 22.8 17.1
1 25.65 25.65 17.1
1 25.65 22.8 19.95
1 22.8 25.65 19.95
1 0 0 22.8
1 2.85 2.85 22.8
1 2.85 0 25.65
1 0 2.85 25.65
1 5.7 0 22.8
1 8.55 2.85 22.8
1 8.55 0 25.65
1 5.7 2.85 25.65
1 11.4 0 22.8
1 14.25 2.85 22.8
1 14.25 0 25.65
1 11.4 2.85 25.65
1 17.1 0 22.8
1 19.95 2.85 22.8
1 19.95 0 25.65
1 17.1 2.85 25.65
1 22.8 0 22.8
1 25.65 2.85 22.8
1 25.65 0 25.65
1 22.8 2.85 25.65
1 0 5.7 22.8
1 2.85 8.55 22.8
1 2.85 5.7 25.65
1 0 8.55 25.65
1 5.7 5.7 22.8
1 8.55 8.55 22.8
1 8.55 5.7 25.65
1 5.7 8.55 25.65
1 11.4 5.7 22.8
1 14.25 8.55 22.8
1 14.25 5.7 25.65
1 11.4 8.55 25.65
1 17.1 5.7 22.8
1 19.95 8.55 22.8
1 19.95 5.7 25.65
1 17.1 8.55 25.65
1 22.8 5.7 22.8
1 25.65 8.55 22.8
1 25.65 5.7 25.65
1 22.8 8.55 25.65
1 0 11.4 22.8
1 2.85 14.25 22.8
1 2.85 11.4 25.65
1 0 14.25 25.65
1 5.7 11.4 22.8
1 8.55 14.25 22.8
1 8.55 11.4 25.65
1 5.7 14.25 25.65
1 11.4 11.4 22.8
1 14.25 14.25 22.8
1 14.25 11.4 25.65
1 11.4 14.25 25.65
1 17.1 11.4 22.8
1 19.95 14.25 22.8
1 19.95 11.4 25.65
1 17.1 14.25 25.65
1 22.8 11.4 22.8
1 25.65 14.25 22.8
1 25.65 11.4 25.65
1 22.8 14.25 25.65
1 0 17.1 22.8
1 2.85 19.95 22.8
1 2.85 17.1 25.65
1 0 19.95 25.65
1 5.7 17.1 22.8
1 8.55 19.95 22.8
1 8.55 17.1 25.65
1 5.7 19.95 25.65
1 11.4 17.1 22.8
1 14.25 19.95 22.8
1 14.25 17.1 25.65
1 11.4 19.95 25.65
1 17.1 17.1 22.8
1 19.95 19.95 22.8
1 19.95 17.1 25.65
1 17.1 19.95 25.65
1 22.8 17.1 22.8
1 25.65 19.95 22.8
1 25.65 17.1 25.65
1 22.8 19.95 25.65
1 0 22.8 22.8
1 2.85 25.65 22.8
1 2.85 22.8 25.65
1 0 25.65 25.65
1 5.7 22.8 22.8
1 8.55 25.65 22.8
1 8.55 22.8 25.65
1 5.7 25.65 25.65
1 11.4 22.8 22.8
1 14.25 25.65 22.8
1 14.25 22.8 25.65
1 11.4 25.65 25.65
1 17.1 22.8 22.8
1 19.95 25.65 22.8
1 19.95 22.8 25.65
1 17.1 25.65 25.65
1 22.8 22.8 22.8
1 25.65 25.65 22.8
1 25.65 22.8 25.65
1 22.8 25.65 25.65
500
Atoms. Timestep: 200
1 5.80491 27.4949 1.89393
1 3.92105 4.37383 1.21789
1 3.89195 25.0165 6.63075
1 27.2647 4.72162 3.64871
1 5.67479 1.66332 27.6611
1 8.94877 0.117065 26.7834
1 10.0496 22.1941 3.29241
1 7.64136 5.355 1.53289
1 8.19142 1.99236 1.03091
1 12.3452 2.75899 25.8021
1 11.7854 28.085 0.453374
1 11.0819 3.91487 1.13211
1 15.3167 27.0028 3.12311
1 21.9691 2.90435 27.2285
1 17.9477 27.1837 0.408356
1 16.7049 1.71932 2.272
1 24.3915 3.28812 1.69825
1 26.6004 26.232 27.899
1 25.8357 26.6281 3.58585
1 20.9923 0.451186 1.53919
1 27.9692 0.992016 3.39866
1 3.06515 3.58161 26.6049
1 5.27432 5.36455 4.42214
1 1.13404 11.0082 7.90348
1 5.00878 7.94651 1.64894
1 9.19578 4.51638 26.5138
1 14.2155 6.07602 7.48744
1 6.80518 10.6338 4.83439
1 8.83729 9.0035 0.941942
1 8.81154 9.52523 25.3005
1 15.5185 4.5819 4.56129
1 10.0677 8.60987 4.89616
1 14.374 4.25343 0.800512
1 25.2778 7.58523 4.63277
1 20.2726 4.63918 2.65179
1 13.8591 7.27677 2.63909
1 23.5655 2.88772 23.6614
1 0.0777433 4.79512 28.3912
1 25.916 6.93582 0.905029
1 21.822 7.63812 2.80089
1 1.72339 6.81696 2.2795
1 27.2504 8.7943 26.2981
1 0.363571 10.9494 4.41915
1 1.31661 16.1905 1.03716
1 3.60388 12.0888 4.38667
1 7.1304 12.1385 1.59833
1 9.50036 12.5626 4.49141
1 4.09055 12.7907 7.76742
1 11.7138 11.0486 2.50342
1 14.8772 12.7009 26.5904
1 12.1777 8.82125 28.399
1 11.5038 15.9612 4.60677
1 18.612 12.3019 27.2399
1 18.2554 7.14584 0.849941
1 18.8617 10.1987 2.37585
1 15.9218 12.2998 1.6023
1 25.6272 11.1442 1.46487
1 22.8932 17.9247 0.153293
1 26.1598 14.4408 3.21252
1 21.4657 14.502 28.4771
1 3.62136 13.3568 1.26589
1 0.681776 23.5608 26.9276
1 1.83322 19.2138 3.28102
1 28.0761 23.7461 2.16753
1 0.387216 19.9161 27.1497
1 3.33032 18.0527 26.7722
1 8.13694 16.2554 2.70018
1 3.12502 21.0972 0.656053
1 10.356 16.9463 28.2182
1 12.1944 19.0992 26.0836
1 13.6461 17.8907 0.870909
1 6.62951 20.121 23.9613
1 16.9829 16.1675 0.387099
1 17.5667 20.3333 28.1278
1 19.634 17.8394 2.1832
1 19.6535 20.2768 5.76487
1 19.6414 17.2933 27.2134
1 25.8594 19.5994 25.2848
1 27.2622 17.6329 3.84607
1 26.307 19.8066 1.0205
1 25.01 22.8063 27.5994
1 6.54596 23.9119 4.05267
1 2.96718 22.7129 3.78889
1 28.1226 24.7728 5.54369
1 6.44718 22.9361 0.42769
1 10.71 24.6258 26.3065
1 7.32296 19.7153 28.1014
1 5.92486 20.3198 3.11463
1 10.7953 21.0772 0.341048
1 14.0315 22.5334 27.7686
1 16.3209 19.7165 3.04904
1 13.4818 21.6812 2.78307
1 21.6477 21.5455 2.24379
1 18.4576 23.5723 27.5338
1 23.3476 20.1548 5.12065
1 12.0285 24.7266 2.34085
1 21.4846 22.621 26.8383
1 23.6016 26.8036 0.87315
1 24.6044 23.4286 6.31439
1 20.8188 25.9995 26.9052
1 2.11263 27.9118 6.55451
1 5.69053 28.4355 5.24601
1 5.55805 2.63417 11.4218
1 2.13938 3.7414 9.59804
1 9.41699 27.9098 7.7525
1 9.02309 27.8626 11.3263
1 12.4071 0.460578 11.642
1 11.7487 5.60909 5.22612
1 12.3729 2.48129 7.33705
1 12.1992 1.05123 3.99573
1 15.7058 1.00708 5.67055
1 16.8591 3.40264 8.2702
1 10.1265 27.0463 4.17016
1 18.9533 28.3713 4.70071
1 17.4687 25.1448 5.50244
1 20.4803 7.18349 9.58469
1 22.5208 27.1455 4.94713
1 25.4309 1.91229 5.59718
1 26.7241 26.7836 11.8259
1 27.3255 1.37143 9.21334
1 2.37992 2.68403 4.0342
1 28.4017 7.00192 6.09373
1 2.93042 5.68209 7.11408
1 25.8399 9.22715 8.70532
1 8.38324 3.17729 4.55418
1 8.14438 11.191 8.72443
1 9.59592 6.17106 8.88858
1 7.10816 8.04533 7.25343
1 8.78136 5.76167 11.9855
1 15.7834 11.8358 8.2122
1 17.0462 7.9206 9.2518
1 12.3674 11.2603 8.04605
1 17.1832 7.50527 4.77304
1 25.4819 11.0989 5.58272
1 22.8025 11.8003 8.46573
1 20.0471 10.5119 10.5405
1 23.453 4.61454 4.94189
1 25.959 5.62726 8.2312
1 0.33735 3.53916 6.69929
1 22.5122 12.2973 2.09072
1 0.159827 12.9901 1.18572
1 5.92519 14.6653 4.9063
1 1.10708 15.0545 7.94017
1 28.3926 18.5849 10.1966
1 3.2257 8.20567 4.90891
1 10.1726 14.2373 7.90028
1 6.50156 12.9078 11.3629
1 6.47486 16.5446 11.4961
1 13.7291 13.3863 5.53319
1 15.1274 15.2642 3.30647
1 15.7086 15.6443 6.96335
1 9.71755 15.5517 11.14
1 14.4344 9.50308 5.77648
1 19.3211 9.65584 6.96056
1 22.86 13.5025 12.1254
1 18.8933 13.4469 7.63924
1 16.8529 12.6684 5.11862
1 24.8032 14.9991 6.90956
1 26.5817 12.5425 9.8747
1 21.642 13.7188 5.33095
1 26.6226 18.6127 7.02891
1 1.35161 19.1425 6.75192
1 1.84467 15.1369 4.75813
1 27.6297 15.4114 11.6617
1 4.95647 17.114 1.47258
1 10.2026 18.9159 3.16168
1 6.79536 15.0329 8.35339
1 3.80413 17.052 8.95579
1 7.86781 17.4339 5.95505
1 13.3572 18.8875 4.76855
1 18.6558 16.2091 5.41999
1 7.37266 19.1592 8.95576
1 19.3695 13.8178 2.65786
1 22.149 17.2775 6.65073
1 18.363 18.2417 8.66979
1 16.3061 21.8548 6.59726
1 22.6282 16.2443 3.19739
1 20.7556 26.7522 8.25026
1 21.1509 19.3559 10.6135
1 23.4155 26.0636 12.3074
1 27.4028 21.0915 4.54457
1 1.12426 22.7547 7.88612
1 0.22129 23.3065 11.3779
1 5.2192 27.9858 8.42188
1 4.46472 17.7734 5.12848
1 8.71823 24.7472 6.50925
1 8.26746 21.2091 6.14164
1 4.42733 21.0767 7.26051
1 12.062 21.8093 6.30148
1 10.9464 24.9805 9.35085
1 13.5753 24.8872 5.48666
1 6.79383 24.606 9.34447
1 17.2494 23.1968 2.21954
1 20.6868 24.9019 2.38797
1 20.6597 24.1552 6.04257
1 16.9129 28.1586 8.83989
1 24.2376 23.6773 3.15197
1 25.3024 26.8563 7.09304
1 25.8189 24.0157 9.73826
1 23.3363 0.776763 8.64252
1 27.6872 3.67438 12.5458
1 5.79327 6.18838 10.0626
1 1.99081 0.403529 10.5455
1 28.3054 0.446022 14.4458
1 5.60849 26.6189 12.165
1 8.61736 2.83109 8.2344
1 10.342 24.8403 13.1254
1 2.51962 3.02499 13.4249
1 14.0199 22.9541 9.34112
1 19.5234 2.15269 10.4233
1 9.27067 2.27112 13.3905
1 14.267 26.2319 9.19026
1 19.5725 3.47237 5.81042
1 23.0549 8.45904 6.9145
1 18.8618 28.2282 14.9221
1 22.5121 4.34629 8.92084
1 22.0244 1.01531 12.2594
1 25.2986 1.3617 13.298
1 24.9645 1.35992 17.4385
1 24.2397 4.28378 11.8561
1 0.21101 7.77637 9.47011
1 3.97827 8.94327 9.01658
1 2.25665 6.62091 12.6146
1 24.6935 7.59073 14.9043
1 5.18279 3.0798 7.30879
1 10.1099 10.6989 12.1016
1 8.51459 8.45369 15.6262
1 5.75187 4.99721 13.9788
1 11.9028 3.9251 10.339
1 13.8095 10.5252 12.3795
1 13.0011 2.98977 13.7808
1 11.644 10.3618 15.2983
1 15.0168 5.3286 11.6162
1 16.4472 8.41424 12.8769
1 18.4565 5.87206 12.2113
1 14.6086 6.24691 14.9089
1 26.2684 6.93538 11.8356
1 25.748 11.0028 13.1044
1 24.3304 4.29393 15.4925
1 21.9735 10.4476 14.4646
1 0.524041 10.2746 12.1997
1 2.32603 12.9816 10.9272
1 2.28586 9.9292 15.4848
1 2.20133 15.9282 16.2328
1 5.18554 8.5158 13.0896
1 9.24264 16.9909 15.321
1 7.35487 12.0486 15.8215
1 4.39968 13.8112 14.0151
1 13.6592 14.7204 9.64361
1 17.4781 14.8186 10.425
1 13.6844 13.0169 17.5048
1 14.8126 15.6386 14.583
1 12.3659 7.75582 10.786
1 21.0479 13.8219 15.7644
1 18.5465 10.167 15.1308
1 16.3724 12.1774 13.724
1 20.8683 15.323 9.82621
1 24.2142 16.1627 10.4559
1 0.131755 13.4231 14.7753
1 27.0509 16.3967 15.6984
1 24.8601 13.6102 15.4572
1 2.62561 16.635 12.1259
1 0.694886 19.0191 13.7304
1 27.9034 22.6306 14.5128
1 3.54363 19.195 16.4458
1 5.05292 19.2116 13.069
1 10.406 13.4385 14.3427
1 3.11934 21.9068 14.2755
1 10.7049 18.3428 7.71073
1 14.0484 19.0086 8.47484
1 15.1666 17.3349 11.1968
1 11.8471 16.9065 13.5365
1 16.6864 20.837 10.5411
1 19.7608 22.0608 8.98281
1 19.2367 16.2298 13.5615
1 17.9935 19.5819 13.353
1 23.3491 16.7668 14.2209
1 25.1954 19.8307 12.0228
1 25.8551 19.5808 15.332
1 21.1486 22.8887 12.4739
1 2.65504 20.8821 10.9185
1 2.93501 25.2249 10.1998
1 1.40682 26.3788 13.4107
1 25.7908 26.4763 15.2375
1 6.01577 21.6385 10.3777
1 7.4302 23.0722 13.7049
1 6.81712 20.2675 15.6316
1 6.63059 23.4668 17.6818
1 8.97384 18.6275 12.3638
1 13.4431 24.0639 12.5513
1 14.0536 19.859 12.8864
1 9.69311 21.428 9.16077
1 17.8248 25.0034 9.21825
1 19.5821 27.1122 11.4568
1 17.5182 23.5309 12.5903
1 18.3859 25.137 15.7253
1 21.935 24.7098 15.6352
1 28.3229 26.2401 8.7559
1 24.235 21.0255 8.89512
1 21.1959 27.1999 17.947
1 2.34544 0.268444 16.6563
1 2.9108 5.60191 16.4989
1 1.20747 3.16004 19.4968
1 27.7815 3.70972 16.8129
1 4.49708 24.7379 15.3483
1 8.92939 3.57913 20.4429
1 8.88463 26.4401 19.7294
1 6.28194 1.13273 19.0983
1 10.6317 4.84143 15.3288
1 9.90845 1.6969 17.2611
1 17.9655 24.2134 19.6483
1 8.26261 26.8219 15.7028
1 15.947 1.67701 11.679
1 17.3653 2.97522 14.5619
1 16.0277 5.39198 18.7422
1 14.0335 1.16159 17.0573
1 18.6673 2.89176 17.4887
1 21.9219 1.33365 15.8101
1 22.8777 0.924305 20.5476
1 20.7714 4.69751 15.4548
1 28.3584 7.23785 15.7176
1 5.10687 8.48953 16.7633
1 3.9467 5.12841 19.9316
1 0.850269 9.53359 23.0652
1 5.70716 1.03967 15.1613
1 7.67711 10.7109 19.3453
1 10.7496 5.31217 23.6125
1 7.28407 5.9381 18.3917
1 11.9815 3.72493 19.0454
1 12.4504 7.04593 18.1724
1 15.9244 1.58497 20.4516
1 9.76755 8.08057 20.1134
1 18.0204 6.98839 16.1969
1 21.5599 11.1559 18.1269
1 16.6748 4.9796 23.3999
1 19.246 11.0694 22.0815
1 22.5814 7.32422 12.4203
1 23.0409 7.65726 18.2424
1 22.0673 3.85697 18.966
1 23.1419 10.9799 21.1955
1 26.0478 10.6069 16.8067
1 4.11224 16.1895 18.9641
1 4.24374 12.7885 18.0829
1 0.834647 15.7983 21.3297
1 9.85229 13.065 17.9365
1 14.7095 15.3526 19.9743
1 5.96685 13.1594 20.7898
1 11.1156 14.6704 20.8797
1 11.5232 10.9526 20.8589
1 17.3115 13.7024 17.7578
1 15.9425 12.4421 21.1199
1 8.27071 11.1936 22.5583
1 14.755 9.52604 17.9828
1 16.4812 18.0197 15.8843
1 21.2666 12.9572 24.0402
1 18.0995 16.8485 18.8824
1 25.5381 13.0645 19.2008
1 0.334241 13.8592 18.3269
1 26.4796 9.53573 20.6096
1 24.1013 14.4235 22.1002
1 0.0838747 19.2373 17.9845
1 27.5586 19.7331 21.226
1 7.3028 16.4552 21.2842
1 2.05678 22.5765 21.6393
1 7.21902 15.3317 17.9075
1 12.1665 16.3133 17.5006
1 11.3049 18.232 20.201
1 3.6603 19.3205 20.8841
1 13.2411 20.9558 16.6732
1 14.1459 24.6095 15.9832
1 15.1092 19.2919 18.9689
1 13.9489 21.917 21.4216
1 16.4246 22.3037 17.3668
1 19.9486 18.2155 16.6301
1 20.2258 19.6021 19.8882
1 17.8003 21.4595 21.6895
1 23.4849 16.5487 17.5373
1 25.9471 22.0571 18.4601
1 26.2922 16.6842 19.5789
1 22.9245 20.6019 17.8353
1 2.54178 21.8988 18.1241
1 3.8535 25.445 18.7725
1 1.88782 28.0458 20.445
1 0.46174 26.0134 17.1566
1 6.57907 18.9827 18.6316
1 10.1628 23.9006 16.5929
1 9.80102 20.1254 17.2899
1 6.65028 25.0774 22.0904
1 10.6392 21.2242 13.4637
1 11.484 27.4703 15.3643
1 15.7758 26.9752 13.1443
1 13.0322 26.5727 18.7348
1 19.573 21.7109 16.0038
1 17.3001 28.061 18.2444
1 21.2891 23.1103 18.8924
1 19.4334 27.0536 21.785
1 21.8533 19.8188 14.0411
1 24.7125 22.5051 13.7636
1 24.8387 26.1376 19.0301
1 22.8422 25.9654 21.7565
1 26.929 0.464307 21.4767
1 3.94108 2.54338 22.0765
1 1.89529 0.197819 28.158
1 0.469223 3.29372 23.5082
1 6.36164 0.337516 22.4867
1 9.90746 1.77594 23.8809
1 13.4055 27.7688 24.7426
1 6.5646 26.2211 27.0352
1 11.5719 0.172728 20.9549
1 13.537 2.86361 22.469
1 14.4169 26.095 27.5931
1 15.7702 1.09039 27.4031
1 16.5929 1.43192 23.5908
1 19.1927 7.01845 19.1811
1 26.9689 1.3939 0.0464282
1 18.8641 9.00672 25.9653
1 21.6694 27.9352 24.1762
1 0.591743 6.87601 20.5892
1 25.4409 28.4335 25.1642
1 19.4743 2.37015 21.2105
1 4.12713 5.61568 23.5735
1 2.73403 12.8936 22.1727
1 6.53754 2.94222 24.6259
1 27.0901 6.68975 23.4913
1 7.03719 7.68908 22.0743
1 4.37171 9.3898 19.8268
1 5.57765 6.02759 27.0198
1 1.93738 9.92599 1.13715
1 13.1615 7.02062 25.284
1 12.9263 7.81746 21.858
1 18.6336 3.46499 28.4376
1 12.2434 10.4743 24.2556
1 16.6985 5.9492 26.5378
1 16.5926 8.65634 20.8668
1 22.1408 8.86069 24.4556
1 22.0557 7.07735 27.8082
1 23.8823 7.25303 21.6347
1 26.143 6.50608 18.3885
1 25.3996 3.81942 20.3524
1 25.5151 10.1797 23.981
1 1.98775 7.69928 27.0314
1 1.17214 10.4134 19.3693
1 24.963 12.9715 26.6091
1 26.4339 16.3738 28.3117
1 1.15227 11.7831 26.6353
1 10.3214 12.0552 27.9432
1 4.74674 10.4149 27.5428
1 5.70527 13.4249 25.23
1 4.84622 9.68107 24.1725
1 13.7036 13.7896 23.6192
1 15.8072 9.51534 24.2066
1 12.4016 14.5296 1.47611
1 16.1803 9.4892 27.8433
1 20.8156 17.1855 23.5469
1 25.5242 5.26381 26.3947
1 21.211 14.2941 19.7355
1 20.794 5.75676 22.1679
1 27.8685 12.6218 22.32
1 23.491 16.2674 25.6743
1 22.2671 10.8668 27.4083
1 2.26505 14.8646 26.5573
1 4.635 16.7215 23.2822
1 1.53299 19.1244 23.511
1 27.6212 22.3547 24.1616
1 6.72636 21.6652 20.8424
1 9.7584 22.993 19.7266
1 7.24882 16.606 26.3743
1 4.16235 22.1048 25.7459
1 9.29564 14.5921 24.3023
1 13.7512 17.8856 22.9407
1 12.3728 14.6524 26.5105
1 9.89385 17.9715 23.8593
1 15.782 16.3655 25.8128
1 17.0653 17.3198 22.4955
1 17.2641 13.4227 24.0654
1 15.4081 20.4059 24.8985
1 23.6696 18.3006 21.8216
1 24.8949 22.4485 21.8505
1 27.4335 15.8858 25.0982
1 22.3532 19.6443 25.7677
1 0.277903 28.1826 24.4802
1 4.10942 0.101251 24.8281
1 3.46113 24.9201 0.401105
1 2.46755 26.0593 3.497
1 3.04352 25.3428 23.311
1 8.96796 26.9908 23.89
1 7.60866 23.5426 25.1865
1 8.93588 25.6231 1.18724
1 14.0247 24.2103 24.4142
1 15.1671 26.8149 21.4969
1 10.5982 21.9452 23.4834
1 11.9256 25.0333 21.646
1 17.0821 26.3239 25.1352
1 19.0156 0.524609 26.4037
1 18.9824 20.1313 25.0137
1 19.8983 3.21492 24.3761
1 21.8804 21.1447 23.0666
1 28.1976 25.3504 22.5072
1 23.7371 24.7089 24.9141
1 19.6193 24.0329 23.8858
500
Atoms. Timestep: 400
1 5.53673 28.0041 1.58423
1 7.27971 3.21431 4.03903
1 0.478861 26.334 8.43797
1 25.0997 1.48561 8.11731
1 6.69396 3.35154 25.8593
1 11.1234 28.0173 19.7666
1 6.64554 23.0031 2.48931
1 10.7313 5.97808 4.67888
1 6.74335 27.8246 26.8185
1 13.1301 25.6952 22.2676
1 12.4416 27.6212 3.27361
1 11.2396 26.3895 25.4099
1 20.184 0.623175 3.08459
1 23.7004 0.577541 24.6128
1 17.165 2.15541 4.97783
1 16.1384 28.27 1.99828
1 28.2861 1.96911 5.0717
1 22.8405 25.2236 25.029
1 23.5981 23.7183 0.00372964
1 22.2292 3.18063 2.2635
1 25.2879 4.01605 4.41841
1 3.89845 7.96105 4.53272
1 7.50072 6.5289 5.38016
1 3.08068 12.8605 10.5033
1 6.52908 9.43397 2.14008
1 4.96984 5.25245 0.55499
1 14.5181 5.35517 5.13072
1 9.17263 9.32791 7.20511
1 8.48179 6.23687 1.35657
1 10.7763 8.46884 27.5593
1 12.8328 2.88629 6.51702
1 15.5868 9.41303 9.05332
1 14.1448 1.67132 27.7771
1 26.0746 7.57087 4.05433
1 20.3816 3.83634 5.03274
1 15.7068 4.46199 1.81084
1 21.057 5.46301 20.54
1 28.3242 3.90472 1.69807
1 23.4597 28.121 0.0151911
1 16.5478 2.30979 24.4739
1 0.684867 9.1907 4.31539
1 27.3784 5.18264 25.012
1 27.045 12.3752 7.66315
1 0.120408 18.4818 0.814329
1 3.75713 11.1182 3.10819
1 8.87743 12.4243 4.41286
1 9.39385 11.7314 0.69809
1 6.19431 10.5164 6.16018
1 15.4757 8.1383 0.164119
1 14.4805 8.87804 25.2149
1 10.0062 4.66876 27.386
1 11.5196 14.7967 0.0678403
1 15.9237 18.3121 0.312194
1 18.3804 10.2975 6.59377
1 17.8861 9.77865 26.2124
1 15.9008 14.4269 3.51135
1 24.1281 6.29712 0.730986
1 24.127 13.4431 24.2343
1 26.587 15.5882 4.85246
1 22.3724 14.9497 2.83067
1 5.31084 11.7328 28.0988
1 0.0658761 2.42508 26.795
1 1.61167 16.7089 4.96858
1 27.5357 25.2271 26.9417
1 26.0837 25.0619 3.01412
1 0.184468 15.8381 25.7322
1 3.20623 17.6588 27.6174
1 2.20093 22.0262 6.38369
1 5.54437 19.9019 25.096
1 14.4064 20.9928 26.1738
1 12.1676 18.0926 28.2406
1 4.09586 19.8689 21.4518
1 14.8267 13.165 28.0671
1 16.5334 20.6883 3.19847
1 19.2853 16.999 1.70302
1 17.6462 17.2771 4.83264
1 21.6024 12.0674 25.7188
1 0.113908 22.0156 27.6765
1 1.08061 15.4939 8.91271
1 24.4749 17.4465 1.39514
1 21.7317 20.8843 27.6164
1 3.11158 23.1533 3.21602
1 1.12002 25.0597 0.843314
1 27.5173 27.0072 5.36119
1 5.04656 25.0724 28.2811
1 10.996 20.7759 26.8754
1 28.1799 22.4457 3.16247
1 3.63354 19.1596 2.99953
1 6.04741 17.0363 0.944638
1 13.0407 20.7393 1.93582
1 14.1472 19.3351 5.276
1 12.602 22.8431 5.47077
1 22.0491 15.2972 27.3541
1 17.7384 21.2901 27.2011
1 21.4657 19.9843 2.63444
1 13.6445 24.5653 2.20041
1 19.7713 24.0347 26.4481
1 22.1629 2.53197 27.2041
1 25.4721 20.9759 1.02904
1 17.0137 24.7144 0.89783
1 1.86404 1.69168 7.80699
1 5.0744 0.343976 5.77193
1 7.0996 27.0443 13.4557
1 3.86182 3.83515 9.48293
1 9.13905 0.59656 4.01094
1 11.6106 3.66112 9.77479
1 12.8243 28.2058 8.20798
1 10.2172 8.89223 3.21458
1 14.1877 5.44549 8.46434
1 11.8952 3.49008 2.27778
1 10.7522 25.7669 6.00492
1 18.4874 3.34396 8.30972
1 6.82172 26.3666 4.21306
1 15.1075 27.4418 5.26202
1 14.9498 25.461 8.07389
1 22.0539 3.5001 8.20982
1 21.3563 25.744 4.23721
1 0.474403 5.74531 5.02168
1 21.9552 26.7249 13.7519
1 0.402597 0.951993 11.2298
1 3.05695 2.47128 2.09653
1 3.14567 7.13466 7.85371
1 4.13655 3.99845 5.91884
1 0.648455 10.5538 10.2784
1 8.33693 1.99891 0.407533
1 11.5166 13.6176 8.0302
1 12.4862 7.42393 10.899
1 10.3114 6.58998 8.16194
1 11.5622 8.79522 13.7736
1 18.437 10.7463 11.4034
1 14.2435 5.17052 12.4406
1 15.8765 8.68631 4.16013
1 18.4718 7.29212 10.0989
1 23.8598 9.95067 6.73468
1 25.1367 10.7743 10.7316
1 21.4228 11.9795 14.7523
1 22.727 6.91983 3.82378
1 27.8768 8.12386 7.75146
1 0.322265 4.80685 9.23229
1 20.6363 9.74697 3.94979
1 28.1729 12.2603 2.31431
1 6.05749 13.7665 2.09089
1 4.00408 14.1785 6.92055
1 0.601917 18.4521 11.1288
1 2.42056 10.7115 6.9624
1 11.9393 13.6654 3.5703
1 7.686 12.4016 7.95792
1 7.78384 16.524 14.1747
1 13.7693 10.9582 2.13714
1 13.2511 16.9703 2.89696
1 14.7391 15.5878 6.95113
1 8.62165 17.2748 9.7378
1 19.4613 13.8567 4.32371
1 20.7692 6.77489 7.05502
1 21.7895 14.8196 12.9545
1 21.4377 17.0413 5.60473
1 14.2904 12.0645 5.76004
1 0.589294 13.3709 5.24246
1 24.3661 13.0828 4.55423
1 22.2676 12.8706 7.41704
1 24.4928 19.1068 4.33741
1 2.18303 18.732 7.98112
1 1.90277 11.0292 0.180761
1 0.195637 17.3149 14.1423
1 2.54464 14.2056 2.34474
1 8.7394 21.2298 4.91429
1 7.88775 15.5665 6.85758
1 4.82271 16.1052 10.3325
1 8.54324 16.0372 3.11236
1 8.38393 19.2707 2.27908
1 19.885 13.0257 0.747923
1 5.71023 19.3897 11.1624
1 17.7896 15.1649 27.5294
1 24.285 16.0485 7.35436
1 20.9342 15.7283 8.74148
1 15.5632 21.6169 8.16142
1 27.9466 19.4588 4.69433
1 19.9676 25.3532 7.28478
1 23.5213 18.6682 9.26283
1 21.0126 24.6103 10.9786
1 23.7096 22.6649 3.59262
1 26.7806 19.3653 7.97162
1 2.49373 25.9871 11.3417
1 8.29315 27.8352 7.37584
1 5.45635 16.7298 4.60851
1 9.06475 26.2584 1.2478
1 5.19249 21.5021 5.25992
1 4.8336 22.1652 8.61237
1 8.23267 21.3733 9.98871
1 7.83136 24.0906 7.27231
1 10.5323 22.7163 2.22049
1 2.89256 25.4133 5.83979
1 16.6193 24.261 5.3495
1 20.3098 23.8987 1.50593
1 24.3078 26.3885 6.43961
1 14.9017 27.0322 11.1297
1 19.8763 26.8906 28.2359
1 21.8919 21.9918 6.64164
1 27.9303 22.9902 9.2417
1 26.2365 26.5246 10.5923
1 6.35348 4.38807 11.8094
1 6.75985 4.63692 8.48001
1 3.99597 0.553326 12.1817
1 25.3382 27.5043 14.1466
1 4.15785 25.6325 14.6058
1 7.72605 7.70288 11.0303
1 8.86431 25.9282 10.3753
1 5.915 1.74897 14.556
1 12.765 20.9814 11.4872
1 17.2963 28.115 7.90241
1 9.20584 1.75799 13.6508
1 11.8323 24.1776 9.68539
1 20.8666 0.199416 6.79317
1 17.2042 6.55945 6.82305
1 18.9642 27.8465 12.3171
1 24.6201 6.21766 7.2708
1 20.6362 2.97956 14.6213
1 22.8483 1.73558 12.3773
1 24.49 1.29463 16.7831
1 22.9907 27.2802 9.1478
1 5.04853 9.3646 13.8047
1 4.9493 9.57468 10.0116
1 6.24494 0.69906 10.1227
1 26.1881 4.39774 16.8679
1 9.57966 2.83245 6.64056
1 10.5028 14.7032 11.8519
1 13.5178 11.2594 11.3406
1 11.1346 6.44795 16.8152
1 9.85121 5.41381 12.5881
1 19.7177 7.32029 13.5564
1 14.2344 6.48165 15.6806
1 14.1638 17.7394 10.9682
1 16.6771 3.54062 14.6173
1 22.2217 6.30688 10.9305
1 16.1943 2.42053 10.7794
1 18.2347 9.5784 16.3814
1 25.4159 4.19569 10.674
1 24.8382 13.9832 9.98973
1 22.3249 5.91736 17.3441
1 26.6051 7.60147 11.0339
1 1.7268 11.2595 14.3285
1 28.1844 14.2115 11.9901
1 4.39535 6.08919 16.1027
1 1.31025 13.7539 19.3604
1 6.32386 12.3546 11.6924
1 7.46428 19.2161 17.9395
1 10.4201 10.6522 10.2941
1 3.34848 9.40421 17.2613
1 12.8458 8.21326 6.05119
1 17.6311 14.1413 7.98244
1 16.2377 13.8721 11.6317
1 16.9755 20.0752 11.7146
1 16.4422 8.10416 12.9099
1 17.5691 15.8969 17.9787
1 26.2121 11.6903 14.7678
1 19.2399 17.0795 11.6096
1 21.0817 9.184 9.798
1 25.6713 16.9099 11.5342
1 0.506966 7.48984 14.6054
1 4.08798 12.9971 17.3562
1 27.4778 14.618 15.8481
1 3.07073 15.274 13.7467
1 2.78696 19.3214 13.4953
1 27.5131 21.2011 14.7008
1 6.02787 15.9965 17.5421
1 6.30149 19.6257 14.5847
1 10.7513 16.374 15.2998
1 3.65838 22.5757 19.3412
1 6.30821 18.7072 7.41772
1 10.9637 20.0866 8.63651
1 17.2045 18.0944 8.52897
1 10.6082 17.3166 6.41786
1 22.8149 21.6264 12.1855
1 18.6861 20.5026 5.98344
1 20.0105 19.9305 9.22909
1 17.9546 18.5557 15.1018
1 21.0489 19.2021 13.8125
1 26.1971 20.3302 11.6876
1 26.8527 15.6091 19.0868
1 25.4894 23.7426 13.2624
1 2.38011 22.4562 11.1028
1 5.53698 25.9363 9.55656
1 2.07284 22.606 15.8232
1 22.3705 26.9876 17.1126
1 6.00578 23.3921 12.5586
1 6.62592 25.2998 18.6831
1 0.920455 24.9308 18.2741
1 4.35597 27.148 20.926
1 9.49018 19.3498 12.9107
1 12.7646 23.1553 14.8852
1 14.2659 19.9701 14.8154
1 9.24226 23.3721 12.9109
1 17.7612 23.6029 9.7366
1 15.283 23.8356 12.2766
1 12.0174 26.3185 12.6289
1 18.6131 25.7221 15.3109
1 22.457 23.5635 15.5866
1 25.96 23.0089 6.25268
1 24.3661 23.4654 9.37725
1 18.4875 0.616565 16.6924
1 6.83074 5.61797 18.6488
1 8.19456 7.66106 15.1106
1 2.9142 3.78121 13.3408
1 27.813 4.48596 13.2849
1 2.16367 28.3006 15.0076
1 12.3663 2.82924 24.6249
1 9.64046 24.6379 22.3655
1 4.96714 28.1662 17.2556
1 14.36 10.7429 15.7047
1 11.9555 2.8959 18.4953
1 19.1412 21.9719 20.4224
1 8.51523 0.280535 17.3125
1 13.0507 1.20928 12.1596
1 16.8455 7.95856 19.546
1 16.4186 12.5479 18.0739
1 11.993 3.33816 14.9326
1 18.1782 3.9595 17.9072
1 19.9152 3.19356 11.1153
1 21.3303 2.06579 18.042
1 23.1565 8.53926 13.9895
1 2.13171 6.99815 11.3435
1 6.88014 9.5586 17.9692
1 9.27376 8.00978 20.9446
1 0.934036 6.87328 22.6165
1 8.43005 3.75514 16.2613
1 10.551 11.9963 14.6733
1 11.0941 5.65339 23.2856
1 14.6661 3.99626 20.3183
1 12.4056 6.87467 20.2872
1 14.2417 13.905 14.3553
1 14.9296 1.27841 17.7913
1 10.374 12.1095 21.3862
1 22.5959 9.60748 17.1806
1 20.4021 12.3174 17.9961
1 18.0433 8.60531 22.975
1 24.5211 10.1407 26.0935