ITEM: TIMESTEP
0
ITEM: NUMBER OF ATOMS
215
ITEM: BOX BOUNDS pp pp pp
0.0000000000000000e+00 1.6289999000000002e+01
0.0000000000000000e+00 1.6289999000000002e+01
0.0000000000000000e+00 1.6289999000000002e+01
ITEM: ATOMS id type x y z 
1 1 0 0 0 
2 1 0 2.715 2.715 
3 1 2.715 0 2.715 
4 1 2.715 2.715 0 
5 1 1.3575 1.3575 1.3575 
6 1 1.3575 4.0725 4.0725 
7 1 4.0725 1.3575 4.0725 
8 1 4.0725 4.0725 1.3575 
9 1 5.43 0 0 
10 1 5.43 2.715 2.715 
11 1 8.145 0 2.715 
12 1 8.145 2.715 0 
13 1 6.7875 1.3575 1.3575 
14 1 6.7875 4.0725 4.0725 
15 1 9.5025 1.3575 4.0725 
16 1 9.5025 4.0725 1.3575 
17 1 10.86 0 0 
18 1 10.86 2.715 2.715 
19 1 13.575 0 2.715 
20 1 13.575 2.715 0 
21 1 12.2175 1.3575 1.3575 
22 1 12.2175 4.0725 4.0725 
23 1 14.9325 1.3575 4.0725 
24 1 14.9325 4.0725 1.3575 
25 1 0 5.43 0 
26 1 0 8.145 2.715 
27 1 2.715 5.43 2.715 
28 1 2.715 8.145 0 
29 1 1.3575 6.7875 1.3575 
30 1 1.3575 9.5025 4.0725 
31 1 4.0725 6.7875 4.0725 
32 1 4.0725 9.5025 1.3575 
33 1 5.43 5.43 0 
34 1 5.43 8.145 2.715 
35 1 8.145 5.43 2.715 
36 1 8.145 8.145 0 
37 1 6.7875 6.7875 1.3575 
38 1 6.7875 9.5025 4.0725 
39 1 9.5025 6.7875 4.0725 
40 1 9.5025 9.5025 1.3575 
41 1 10.86 5.43 0 
42 1 10.86 8.145 2.715 
43 1 13.575 5.43 2.715 
44 1 13.575 8.145 0 
45 1 12.2175 6.7875 1.3575 
46 1 12.2175 9.5025 4.0725 
47 1 14.9325 6.7875 4.0725 
48 1 14.9325 9.5025 1.3575 
49 1 0 10.86 0 
50 1 0 13.575 2.715 
51 1 2.715 10.86 2.715 
52 1 2.715 13.575 0 
53 1 1.3575 12.2175 1.3575 
54 1 1.3575 14.9325 4.0725 
55 1 4.0725 12.2175 4.0725 
56 1 4.0725 14.9325 1.3575 
57 1 5.43 10.86 0 
58 1 5.43 13.575 2.715 
59 1 8.145 10.86 2.715 
60 1 8.145 13.575 0 
61 1 6.7875 12.2175 1.3575 
62 1 6.7875 14.9325 4.0725 
63 1 9.5025 12.2175 4.0725 
64 1 9.5025 14.9325 1.3575 
65 1 10.86 10.86 0 
66 1 10.86 13.575 2.715 
67 1 13.575 10.86 2.715 
68 1 13.575 13.575 0 
69 1 12.2175 12.2175 1.3575 
70 1 12.2175 14.9325 4.0725 
71 1 14.9325 12.2175 4.0725 
72 1 14.9325 14.9325 1.3575 
73 1 0 0 5.43 
74 1 0 2.715 8.145 
75 1 2.715 0 8.145 
76 1 2.715 2.715 5.43 
77 1 1.3575 1.3575 6.7875 
78 1 1.3575 4.0725 9.5025 
79 1 4.0725 1.3575 9.5025 
80 1 4.0725 4.0725 6.7875 
81 1 5.43 0 5.43 
82 1 5.43 2.715 8.145 
83 1 8.145 0 8.145 
84 1 8.145 2.715 5.43 
85 1 6.7875 1.3575 6.7875 
86 1 6.7875 4.0725 9.5025 
87 1 9.5025 1.3575 9.5025 
88 1 9.5025 4.0725 6.7875 
89 1 10.86 0 5.43 
90 1 10.86 2.715 8.145 
91 1 13.575 0 8.145 
92 1 13.575 2.715 5.43 
93 1 12.2175 1.3575 6.7875 
94 1 12.2175 4.0725 9.5025 
95 1 14.9325 1.3575 9.5025 
96 1 14.9325 4.0725 6.7875 
97 1 0 5.43 5.43 
98 1 0 8.145 8.145 
99 1 2.715 5.43 8.145 
100 1 2.715 8.145 5.43 
101 1 1.3575 6.7875 6.7875 
102 1 1.3575 9.5025 9.5025 
103 1 4.0725 6.7875 9.5025 
104 1 4.0725 9.5025 6.7875 
105 1 5.43 5.43 5.43 
106 1 5.43 8.145 8.145 
107 1 8.145 5.43 8.145 
108 1 8.145 8.145 5.43 
109 1 6.7875 6.7875 6.7875 
110 1 6.7875 9.5025 9.5025 
111 1 9.5025 6.7875 9.5025 
112 1 9.5025 9.5025 6.7875 
113 1 10.86 5.43 5.43 
114 1 10.86 8.145 8.145 
115 1 13.575 5.43 8.145 
116 1 13.575 8.145 5.43 
117 1 12.2175 6.7875 6.7875 
118 1 12.2175 9.5025 9.5025 
119 1 14.9325 6.7875 9.5025 
120 1 14.9325 9.5025 6.7875 
121 1 0 10.86 5.43 
122 1 0 13.575 8.145 
123 1 2.715 10.86 8.145 
124 1 2.715 13.575 5.43 
125 1 1.3575 12.2175 6.7875 
126 1 1.3575 14.9325 9.5025 
127 1 4.0725 12.2175 9.5025 
128 1 4.0725 14.9325 6.7875 
129 1 5.43 10.86 5.43 
130 1 5.43 13.575 8.145 
131 1 8.145 10.86 8.145 
132 1 8.145 13.575 5.43 
133 1 6.7875 12.2175 6.7875 
134 1 6.7875 14.9325 9.5025 
135 1 9.5025 12.2175 9.5025 
136 1 9.5025 14.9325 6.7875 
137 1 10.86 10.86 5.43 
138 1 10.86 13.575 8.145 
139 1 13.575 10.86 8.145 
140 1 13.575 13.575 5.43 
141 1 12.2175 12.2175 6.7875 
142 1 12.2175 14.9325 9.5025 
143 1 14.9325 12.2175 9.5025 
144 1 14.9325 14.9325 6.7875 
145 1 0 0 10.86 
146 1 0 2.715 13.575 
147 1 2.715 0 13.575 
148 1 2.715 2.715 10.86 
149 1 1.3575 1.3575 12.2175 
150 1 1.3575 4.0725 14.9325 
151 1 4.0725 1.3575 14.9325 
152 1 4.0725 4.0725 12.2175 
153 1 5.43 0 10.86 
154 1 5.43 2.715 13.575 
155 1 8.145 0 13.575 
156 1 8.145 2.715 10.86 
157 1 6.7875 1.3575 12.2175 
158 1 6.7875 4.0725 14.9325 
159 1 9.5025 1.3575 14.9325 
160 1 9.5025 4.0725 12.2175 
161 1 10.86 0 10.86 
162 1 10.86 2.715 13.575 
163 1 13.575 0 13.575 
164 1 13.575 2.715 10.86 
165 1 12.2175 1.3575 12.2175 
166 1 12.2175 4.0725 14.9325 
167 1 14.9325 1.3575 14.9325 
168 1 14.9325 4.0725 12.2175 
169 1 0 5.43 10.86 
170 1 0 8.145 13.575 
171 1 2.715 5.43 13.575 
172 1 2.715 8.145 10.86 
173 1 1.3575 6.7875 12.2175 
174 1 1.3575 9.5025 14.9325 
175 1 4.0725 6.7875 14.9325 
176 1 4.0725 9.5025 12.2175 
177 1 5.43 5.43 10.86 
178 1 5.43 8.145 13.575 
179 1 8.145 5.43 13.575 
180 1 8.145 8.145 10.86 
181 1 6.7875 6.7875 12.2175 
182 1 6.7875 9.5025 14.9325 
183 1 9.5025 6.7875 14.9325 
184 1 9.5025 9.5025 12.2175 
185 1 10.86 5.43 10.86 
186 1 10.86 8.145 13.575 
187 1 13.575 5.43 13.575 
188 1 13.575 8.145 10.86 
189 1 12.2175 6.7875 12.2175 
190 1 12.2175 9.5025 14.9325 
191 1 14.9325 6.7875 14.9325 
192 1 14.9325 9.5025 12.2175 
193 1 0 10.86 10.86 
194 1 0 13.575 13.575 
195 1 2.715 10.86 13.575 
196 1 2.715 13.575 10.86 
197 1 1.3575 12.2175 12.2175 
198 1 1.3575 14.9325 14.9325 
199 1 4.0725 12.2175 14.9325 
200 1 4.0725 14.9325 12.2175 
201 1 5.43 10.86 10.86 
202 1 5.43 13.575 13.575 
203 1 8.145 10.86 13.575 
204 1 8.145 13.575 10.86 
205 1 6.7875 12.2175 12.2175 
206 1 6.7875 14.9325 14.9325 
207 1 9.5025 12.2175 14.9325 
208 1 9.5025 14.9325 12.2175 
209 1 10.86 10.86 10.86 
210 1 10.86 13.575 13.575 
211 1 13.575 10.86 13.575 
212 1 13.575 13.575 10.86 
213 1 12.2175 12.2175 12.2175 
214 1 12.2175 14.9325 14.9325 
215 1 14.9325 12.2175 14.9325 
ITEM: TIMESTEP
100
ITEM: NUMBER OF ATOMS
215
ITEM: BOX BOUNDS pp pp pp
-6.6372733741361389e-04 1.6290662727337413e+01
-6.6372733741361389e-04 1.6290662727337413e+01
-6.6372733741361389e-04 1.6290662727337413e+01
ITEM: ATOMS id type x y z 
1 1 -0.00429593 -0.00429593 -0.00693197 
2 1 -0.00028859 2.71303 2.71274 
3 1 2.71303 -0.00028859 2.71274 
4 1 2.71247 2.71247 -0.00275276 
5 1 1.35337 1.35337 1.35233 
6 1 1.35623 4.07165 4.0712 
7 1 4.07165 1.35623 4.0712 
8 1 4.07048 4.07048 1.35526 
9 1 5.42796 -0.00028859 -0.00218953 
10 1 5.42917 2.71455 2.71395 
11 1 8.14519 -0.000598336 2.71436 
12 1 8.14417 2.71494 -0.000281777 
13 1 6.78642 1.35623 1.35642 
14 1 6.78739 4.07155 4.07217 
15 1 9.50313 1.35623 4.07314 
16 1 9.50228 4.0725 1.35728 
17 1 10.8613 -0.000910584 -0.00174177 
18 1 10.8598 2.71494 2.71538 
19 1 13.575 -0.000192166 2.71436 
20 1 13.5757 2.71348 -0.00174177 
21 1 12.2171 1.35764 1.35681 
22 1 12.2185 4.07165 4.07314 
23 1 14.9331 1.35715 4.07217 
24 1 14.9329 4.07157 1.35635 
25 1 -0.00028859 5.42796 -0.00218953 
26 1 -0.000598336 8.14519 2.71436 
27 1 2.71455 5.42917 2.71395 
28 1 2.71494 8.14417 -0.000281777 
29 1 1.35623 6.78642 1.35642 
30 1 1.35623 9.50313 4.07314 
31 1 4.07155 6.78739 4.07217 
32 1 4.0725 9.50228 1.35728 
33 1 5.42917 5.42917 -0.000669317 
34 1 5.43012 8.14465 2.7149 
35 1 8.14465 5.43012 2.7149 
36 1 8.14561 8.14561 -0.000669318 
37 1 6.78739 6.78739 1.35633 
38 1 6.78739 9.50323 4.07217 
39 1 9.50323 6.78739 4.07217 
40 1 9.50429 9.50429 1.35526 
41 1 10.8598 5.43061 -0.000281778 
42 1 10.8602 8.14561 2.71395 
43 1 13.5754 5.42958 2.71436 
44 1 13.5751 8.14682 -0.00218954 
45 1 12.2185 6.78836 1.35642 
46 1 12.2185 9.50313 4.0712 
47 1 14.9331 6.78739 4.07217 
48 1 14.9332 9.50321 1.35635 
49 1 -0.000910584 10.8613 -0.00174177 
50 1 -0.000192166 13.575 2.71436 
51 1 2.71494 10.8598 2.71538 
52 1 2.71348 13.5757 -0.00174177 
53 1 1.35764 12.2171 1.35681 
54 1 1.35715 14.9331 4.07217 
55 1 4.07165 12.2185 4.07314 
56 1 4.07157 14.9329 1.35635 
57 1 5.43061 10.8598 -0.000281778 
58 1 5.42958 13.5754 2.71436 
59 1 8.14561 10.8602 2.71395 
60 1 8.14682 13.5751 -0.00218954 
61 1 6.78836 12.2185 1.35642 
62 1 6.78739 14.9331 4.07217 
63 1 9.50313 12.2185 4.0712 
64 1 9.50321 14.9332 1.35635 
65 1 10.8623 10.8623 -0.00275277 
66 1 10.8617 13.5751 2.71274 
67 1 13.5751 10.8617 2.71274 
68 1 13.5791 13.5791 -0.00693197 
69 1 12.2214 12.2214 1.35233 
70 1 12.2176 14.9331 4.07217 
71 1 14.9331 12.2176 4.07217 
72 1 14.9331 14.9331 1.35718 
73 1 -0.000192166 -0.000192166 5.42998 
74 1 -0.000910585 2.71348 8.14608 
75 1 2.71348 -0.000910585 8.14608 
76 1 2.71494 2.71494 5.42895 
77 1 1.35764 1.35764 6.78752 
78 1 1.35764 4.07203 9.50192 
79 1 4.07203 1.35764 9.50192 
80 1 4.0725 4.0725 6.78706 
81 1 5.42958 -0.000598337 5.42997 
82 1 5.43061 2.71494 8.14462 
83 1 8.14682 -0.000288591 8.14653 
84 1 8.14561 2.71455 5.43039 
85 1 6.78836 1.35623 6.78791 
86 1 6.78836 4.07165 9.50333 
87 1 9.50723 1.35337 9.50619 
88 1 9.50429 4.07048 6.78907 
89 1 10.8617 -0.000288591 5.4316 
90 1 10.8623 2.71247 8.14709 
91 1 13.5791 -0.00429593 8.15127 
92 1 13.5751 2.71303 5.4316 
93 1 12.2214 1.35337 6.79201 
94 1 12.2214 4.06755 9.50619 
95 1 14.9406 1.35179 9.50777 
96 1 14.9332 4.07157 6.78799 
97 1 -0.000598337 5.42958 5.42997 
98 1 -0.000288591 8.14682 8.14653 
99 1 2.71494 5.43061 8.14462 
100 1 2.71455 8.14561 5.43039 
101 1 1.35623 6.78836 6.78791 
102 1 1.35337 9.50723 9.50619 
103 1 4.07165 6.78836 9.50333 
104 1 4.07048 9.50429 6.78907 
105 1 5.43012 5.43012 5.42943 
106 1 5.42917 8.14561 8.14501 
107 1 8.14561 5.42917 8.14501 
108 1 8.14465 8.14465 5.42943 
109 1 6.78739 6.78739 6.78801 
110 1 6.78642 9.50313 9.50333 
111 1 9.50313 6.78642 9.50333 
112 1 9.50228 9.50228 6.78706 
113 1 10.8602 5.42917 5.43039 
114 1 10.8598 8.14417 8.14462 
115 1 13.5751 5.42796 8.14653 
116 1 13.5754 8.14519 5.42997 
117 1 12.2185 6.78642 6.78791 
118 1 12.2171 9.50274 9.50192 
119 1 14.9331 6.78739 9.50241 
120 1 14.9329 9.50321 6.78799 
121 1 -0.000288591 10.8617 5.4316 
122 1 -0.00429593 13.5791 8.15127 
123 1 2.71247 10.8623 8.14709 
124 1 2.71303 13.5751 5.4316 
125 1 1.35337 12.2214 6.79201 
126 1 1.35179 14.9406 9.50777 
127 1 4.06755 12.2214 9.50619 
128 1 4.07157 14.9332 6.78799 
129 1 5.42917 10.8602 5.43039 
130 1 5.42796 13.5751 8.14653 
131 1 8.14417 10.8598 8.14462 
132 1 8.14519 13.5754 5.42997 
133 1 6.78642 12.2185 6.78791 
134 1 6.78739 14.9331 9.50241 
135 1 9.50274 12.2171 9.50192 
136 1 9.50321 14.9329 6.78799 
137 1 10.8598 10.8598 5.42895 
138 1 10.8613 13.5757 8.14608 
139 1 13.5757 10.8613 8.14608 
140 1 13.575 13.575 5.42998 
141 1 12.2171 12.2171 6.78752 
142 1 12.223 14.9255 9.50777 
143 1 14.9255 12.223 9.50777 
144 1 14.9331 14.9331 6.78716 
145 1 0.0126311 0.0126311 10.8469 
146 1 -0.00429593 2.70829 13.5718 
147 1 2.70829 -0.00429593 13.5718 
148 1 2.71348 2.71348 10.8605 
149 1 1.35179 1.35179 12.2103 
150 1 1.35337 4.06755 14.9295 
151 1 4.06755 1.35337 14.9295 
152 1 4.07157 4.07157 12.2176 
153 1 5.42958 -0.000192166 10.8597 
154 1 5.42796 2.71303 13.5758 
155 1 8.1452 -0.000192166 13.5759 
156 1 8.14682 2.71303 10.8598 
157 1 6.78739 1.35715 12.2178 
158 1 6.78642 4.07165 14.9323 
159 1 9.50274 1.35764 14.9337 
160 1 9.50321 4.07157 12.218 
161 1 10.8665 -0.00429593 10.8639 
162 1 10.8613 2.71348 13.5752 
163 1 13.5621 0.0126311 13.5887 
164 1 13.5791 2.70829 10.8639 
165 1 12.223 1.35179 12.2254 
166 1 12.2171 4.07203 14.9337 
167 1 14.9255 1.35179 14.9279 
168 1 14.9331 4.0724 12.2178 
169 1 -0.000192166 5.42958 10.8597 
170 1 -0.000192166 8.1452 13.5759 
171 1 2.71303 5.42796 13.5758 
172 1 2.71303 8.14682 10.8598 
173 1 1.35715 6.78739 12.2178 
174 1 1.35764 9.50274 14.9337 
175 1 4.07165 6.78642 14.9323 
176 1 4.07157 9.50321 12.218 
177 1 5.42958 5.42958 10.8602 
178 1 5.42958 8.14519 13.5755 
179 1 8.14519 5.42958 13.5755 
180 1 8.14519 8.14519 10.8602 
181 1 6.78739 6.78739 12.2178 
182 1 6.78836 9.50313 14.9323 
183 1 9.50313 6.78836 14.9323 
184 1 9.50321 9.50321 12.2176 
185 1 10.8617 5.42796 10.8598 
186 1 10.8617 8.14682 13.5758 
187 1 13.575 5.42958 13.5759 
188 1 13.575 8.1452 10.8597 
189 1 12.2176 6.78739 12.2178 
190 1 12.2214 9.50723 14.9295 
191 1 14.9331 6.78739 14.9333 
192 1 14.9331 9.50238 12.2178 
193 1 -0.00429593 10.8665 10.8639 
194 1 0.0126311 13.5621 13.5887 
195 1 2.71348 10.8613 13.5752 
196 1 2.70829 13.5791 10.8639 
197 1 1.35179 12.223 12.2254 
198 1 1.35179 14.9255 14.9279 
199 1 4.07203 12.2171 14.9337 
200 1 4.0724 14.9331 12.2178 
201 1 5.42796 10.8617 10.8598 
202 1 5.42958 13.575 13.5759 
203 1 8.14682 10.8617 13.5758 
204 1 8.1452 13.575 10.8597 
205 1 6.78739 12.2176 12.2178 
206 1 6.78739 14.9331 14.9333 
207 1 9.50723 12.2214 14.9295 
208 1 9.50238 14.9331 12.2178 
209 1 10.8613 10.8613 10.8605 
210 1 10.8665 13.5791 13.5718 
211 1 13.5791 10.8665 13.5718 
212 1 13.5621 13.5621 10.8469 
213 1 12.223 12.223 12.2103 
214 1 12.223 14.9406 14.9279 
215 1 14.9406 12.223 14.9279 
ITEM: TIMESTEP
158
ITEM: NUMBER OF ATOMS
215
ITEM: BOX BOUNDS pp pp pp
-6.6402248131001269e-04 1.6290663022481315e+01
-6.6402248131001269e-04 1.6290663022481315e+01
-6.6402248131001269e-04 1.6290663022481315e+01
ITEM: ATOMS id type x y z 
1 1 -0.00429612 -0.00429612 -0.00692967 
2 1 -0.000288546 2.71303 2.71274 
3 1 2.71303 -0.000288546 2.71274 
4 1 2.71247 2.71247 -0.00275197 
5 1 1.35337 1.35337 1.35233 
6 1 1.35623 4.07165 4.0712 
7 1 4.07165 1.35623 4.0712 
8 1 4.07049 4.07049 1.35526 
9 1 5.42796 -0.000288546 -0.00218871 
10 1 5.42917 2.71455 2.71395 
11 1 8.14519 -0.000598776 2.71436 
12 1 8.14417 2.71494 -0.000282411 
13 1 6.78642 1.35623 1.35643 
14 1 6.78739 4.07155 4.07217 
15 1 9.50313 1.35623 4.07314 
16 1 9.50228 4.0725 1.35728 
17 1 10.8613 -0.000912748 -0.00174135 
18 1 10.8598 2.71494 2.71538 
19 1 13.575 -0.000192407 2.71436 
20 1 13.5757 2.71348 -0.00174135 
21 1 12.2171 1.35764 1.35681 
22 1 12.2185 4.07165 4.07314 
23 1 14.9331 1.35715 4.07217 
24 1 14.9329 4.07157 1.35635 
25 1 -0.000288546 5.42796 -0.00218871 
26 1 -0.000598776 8.14519 2.71436 
27 1 2.71455 5.42917 2.71395 
28 1 2.71494 8.14417 -0.000282411 
29 1 1.35623 6.78642 1.35643 
30 1 1.35623 9.50313 4.07314 
31 1 4.07155 6.78739 4.07217 
32 1 4.0725 9.50228 1.35728 
33 1 5.42917 5.42917 -0.000669853 
34 1 5.43012 8.14465 2.7149 
35 1 8.14465 5.43012 2.7149 
36 1 8.14561 8.14561 -0.000669853 
37 1 6.78739 6.78739 1.35633 
38 1 6.78739 9.50323 4.07217 
39 1 9.50323 6.78739 4.07217 
40 1 9.50429 9.50429 1.35526 
41 1 10.8598 5.4306 -0.000282412 
42 1 10.8602 8.14561 2.71395 
43 1 13.5754 5.42959 2.71436 
44 1 13.5751 8.14682 -0.00218871 
45 1 12.2185 6.78836 1.35643 
46 1 12.2185 9.50313 4.0712 
47 1 14.9331 6.78739 4.07217 
48 1 14.9332 9.50321 1.35635 
49 1 -0.000912748 10.8613 -0.00174135 
50 1 -0.000192407 13.575 2.71436 
51 1 2.71494 10.8598 2.71538 
52 1 2.71348 13.5757 -0.00174135 
53 1 1.35764 12.2171 1.35681 
54 1 1.35715 14.9331 4.07217 
55 1 4.07165 12.2185 4.07314 
56 1 4.07157 14.9329 1.35635 
57 1 5.4306 10.8598 -0.000282412 
58 1 5.42959 13.5754 2.71436 
59 1 8.14561 10.8602 2.71395 
60 1 8.14682 13.5751 -0.00218871 
61 1 6.78836 12.2185 1.35643 
62 1 6.78739 14.9331 4.07217 
63 1 9.50313 12.2185 4.0712 
64 1 9.50321 14.9332 1.35635 
65 1 10.8623 10.8623 -0.00275197 
66 1 10.8617 13.5751 2.71274 
67 1 13.5751 10.8617 2.71274 
68 1 13.5791 13.5791 -0.00692967 
69 1 12.2214 12.2214 1.35233 
70 1 12.2176 14.9331 4.07217 
71 1 14.9331 12.2176 4.07217 
72 1 14.9331 14.9331 1.35718 
73 1 -0.000192407 -0.000192407 5.42998 
74 1 -0.000912748 2.71348 8.14608 
75 1 2.71348 -0.000912748 8.14608 
76 1 2.71494 2.71494 5.42895 
77 1 1.35764 1.35764 6.78752 
78 1 1.35764 4.07203 9.50192 
79 1 4.07203 1.35764 9.50192 
80 1 4.0725 4.0725 6.78706 
81 1 5.42959 -0.000598776 5.42997 
82 1 5.4306 2.71494 8.14462 
83 1 8.14682 -0.000288546 8.14652 
84 1 8.14561 2.71455 5.43039 
85 1 6.78836 1.35623 6.78791 
86 1 6.78836 4.07165 9.50332 
87 1 9.50723 1.35337 9.50618 
88 1 9.50429 4.07049 6.78907 
89 1 10.8617 -0.000288546 5.4316 
90 1 10.8623 2.71247 8.14709 
91 1 13.5791 -0.00429612 8.15127 
92 1 13.5751 2.71303 5.4316 
93 1 12.2214 1.35337 6.79201 
94 1 12.2214 4.06755 9.50618 
95 1 14.9406 1.35179 9.50777 
96 1 14.9332 4.07157 6.78799 
97 1 -0.000598776 5.42959 5.42997 
98 1 -0.000288546 8.14682 8.14652 
99 1 2.71494 5.4306 8.14462 
100 1 2.71455 8.14561 5.43039 
101 1 1.35623 6.78836 6.78791 
102 1 1.35337 9.50723 9.50618 
103 1 4.07165 6.78836 9.50332 
104 1 4.07049 9.50429 6.78907 
105 1 5.43012 5.43012 5.42943 
106 1 5.42917 8.14561 8.14501 
107 1 8.14561 5.42917 8.14501 
108 1 8.14465 8.14465 5.42943 
109 1 6.78739 6.78739 6.78801 
110 1 6.78642 9.50313 9.50332 
111 1 9.50313 6.78642 9.50332 
112 1 9.50228 9.50228 6.78706 
113 1 10.8602 5.42917 5.43039 
114 1 10.8598 8.14417 8.14462 
115 1 13.5751 5.42796 8.14652 
116 1 13.5754 8.14519 5.42997 
117 1 12.2185 6.78642 6.78791 
118 1 12.2171 9.50275 9.50192 
119 1 14.9331 6.78739 9.5024 
120 1 14.9329 9.50321 6.78799 
121 1 -0.000288546 10.8617 5.4316 
122 1 -0.00429612 13.5791 8.15127 
123 1 2.71247 10.8623 8.14709 
124 1 2.71303 13.5751 5.4316 
125 1 1.35337 12.2214 6.79201 
126 1 1.35179 14.9406 9.50777 
127 1 4.06755 12.2214 9.50618 
128 1 4.07157 14.9332 6.78799 
129 1 5.42917 10.8602 5.43039 
130 1 5.42796 13.5751 8.14652 
131 1 8.14417 10.8598 8.14462 
132 1 8.14519 13.5754 5.42997 
133 1 6.78642 12.2185 6.78791 
134 1 6.78739 14.9331 9.5024 
135 1 9.50275 12.2171 9.50192 
136 1 9.50321 14.9329 6.78799 
137 1 10.8598 10.8598 5.42895 
138 1 10.8613 13.5757 8.14608 
139 1 13.5757 10.8613 8.14608 
140 1 13.575 13.575 5.42998 
141 1 12.2171 12.2171 6.78752 
142 1 12.223 14.9255 9.50777 
143 1 14.9255 12.223 9.50777 
144 1 14.9331 14.9331 6.78716 
145 1 0.0126361 0.0126361 10.8469 
146 1 -0.00429612 2.70829 13.5718 
147 1 2.70829 -0.00429612 13.5718 
148 1 2.71348 2.71348 10.8605 
149 1 1.35179 1.35179 12.2103 
150 1 1.35337 4.06755 14.9295 
151 1 4.06755 1.35337 14.9295 
152 1 4.07157 4.07157 12.2176 
153 1 5.42958 -0.000192407 10.8597 
154 1 5.42796 2.71303 13.5758 
155 1 8.1452 -0.000192407 13.5759 
156 1 8.14682 2.71303 10.8598 
157 1 6.78739 1.35715 12.2178 
158 1 6.78642 4.07165 14.9323 
159 1 9.50275 1.35764 14.9337 
160 1 9.50321 4.07157 12.218 
161 1 10.8665 -0.00429612 10.8639 
162 1 10.8613 2.71348 13.5752 
163 1 13.5621 0.0126361 13.5887 
164 1 13.5791 2.70829 10.8639 
165 1 12.223 1.35179 12.2254 
166 1 12.2171 4.07203 14.9337 
167 1 14.9255 1.35179 14.9279 
168 1 14.9331 4.0724 12.2178 
169 1 -0.000192407 5.42958 10.8597 
170 1 -0.000192407 8.1452 13.5759 
171 1 2.71303 5.42796 13.5758 
172 1 2.71303 8.14682 10.8598 
173 1 1.35715 6.78739 12.2178 
174 1 1.35764 9.50275 14.9337 
175 1 4.07165 6.78642 14.9323 
176 1 4.07157 9.50321 12.218 
177 1 5.42959 5.42959 10.8602 
178 1 5.42959 8.14519 13.5755 
179 1 8.14519 5.42959 13.5755 
180 1 8.14519 8.14519 10.8602 
181 1 6.78739 6.78739 12.2178 
182 1 6.78836 9.50313 14.9323 
183 1 9.50313 6.78836 14.9323 
184 1 9.50321 9.50321 12.2176 
185 1 10.8617 5.42796 10.8598 
186 1 10.8617 8.14682 13.5758 
187 1 13.575 5.42958 13.5759 
188 1 13.575 8.1452 10.8597 
189 1 12.2176 6.78739 12.2178 
190 1 12.2214 9.50723 14.9295 
191 1 14.9331 6.78739 14.9333 
192 1 14.9331 9.50238 12.2178 
193 1 -0.00429612 10.8665 10.8639 
194 1 0.0126361 13.5621 13.5887 
195 1 2.71348 10.8613 13.5752 
196 1 2.70829 13.5791 10.8639 
197 1 1.35179 12.223 12.2254 
198 1 1.35179 14.9255 14.9279 
199 1 4.07203 12.2171 14.9337 
200 1 4.0724 14.9331 12.2178 
201 1 5.42796 10.8617 10.8598 
202 1 5.42958 13.575 13.5759 
203 1 8.14682 10.8617 13.5758 
204 1 8.1452 13.575 10.8597 
205 1 6.78739 12.2176 12.2178 
206 1 6.78739 14.9331 14.9333 
207 1 9.50723 12.2214 14.9295 
208 1 9.50238 14.9331 12.2178 
209 1 10.8613 10.8613 10.8605 
210 1 10.8665 13.5791 13.5718 
211 1 13.5791 10.8665 13.5718 
212 1 13.5621 13.5621 10.8469 
213 1 12.223 12.223 12.2103 
214 1 12.223 14.9406 14.9279 
215 1 14.9406 12.223 14.9279 
