LAMMPS (11 Aug 2017)
LAMMPS (11 Aug 2017)
LAMMPS (11 Aug 2017)
LAMMPS (11 Aug 2017)
Lattice spacing in x,y,z = 5.7 5.7 5.7
Created orthogonal box = (0 0 0) to (28.5 28.5 28.5)
Total wall time: 0:00:00
Total wall time: 0:00:00
Total wall time: 0:00:00
  1 by 1 by 1 MPI processor grid
Created 500 atoms
Neighbor list info ...
  update every 1 steps, delay 0 steps, check yes
  max neighbors/atom: 2000, page size: 100000
  master list distance cutoff = 10.5
  ghost atom cutoff = 10.5
  binsize = 5.25, bins = 6 6 6
  1 neighbor lists, perpetual/occasional/extra = 1 0 0
  (1) pair lj/cut, perpetual
      attributes: half, newton on
      pair build: half/bin/atomonly/newton
      stencil: half/bin/3d/newton
      bin: standard
Setting up Verlet run ...
  Unit style    : metal
  Current step  : 0
  Time step     : 0.001
Per MPI rank memory allocation (min/avg/max) = 4.187 | 4.187 | 4.187 Mbytes
Step KinEng PotEng TotEng Temp 
       0    16.125203   -36.291337   -20.166134          250 
     100      12.6997   -32.832096   -20.132397    196.89209 
     200    7.6458981   -27.823188    -20.17729    118.53956 
     300    8.5106359    -28.70098   -20.190344    131.94618 
     400    8.2720626   -28.469396   -20.197334    128.24742 
     500    8.5151036   -28.717824   -20.202721    132.01545 
     600     8.474252   -28.678059   -20.203807     131.3821 
     700    8.7216304   -28.929933   -20.208302    135.21737 
     800    8.6582505   -28.864049   -20.205798    134.23475 
     900     8.408248   -28.615255   -20.207007    130.35879 
    1000    8.4572438   -28.661099   -20.203855    131.11841 
    1100    8.9207633   -29.125216   -20.204452    138.30467 
    1200    9.0007061   -29.204455   -20.203749    139.54407 
    1300    8.6616702   -28.865731   -20.204061    134.28777 
    1400    8.0899469   -28.294902   -20.204955    125.42395 
    1500    8.3434553   -28.550417   -20.206962    129.35427 
    1600    8.2304592   -28.436827   -20.206368    127.60241 
    1700    8.7458201   -28.953811   -20.207991     135.5924 
    1800      8.48564   -28.690606   -20.204966    131.55865 
    1900    8.3620889   -28.567103   -20.205014    129.64316 
    2000    8.5726245   -28.782978   -20.210354    132.90723 
    2100    8.4399682   -28.651484   -20.211515    130.85057 
    2200     8.041173   -28.254795   -20.213622    124.66778 
    2300    8.0010341   -28.214783   -20.213749    124.04548 
    2400    8.3314405    -28.54707   -20.215629    129.16799 
    2500     7.783623   -27.996215   -20.212592    120.67481 
    2600    8.2475768   -28.460828   -20.213251     127.8678 
    2700    8.2245963   -28.438478   -20.213881    127.51151 
    2800    8.3090599   -28.521665   -20.212605    128.82101 
    2900    8.3295573    -28.54055   -20.210993     129.1388 
    3000     8.739766   -28.950902   -20.211136    135.49854 
    3100    8.2442376   -28.457605   -20.213367    127.81603 
    3200    8.0564735   -28.268179   -20.211705    124.90499 
    3300    8.0796484   -28.293215   -20.213567    125.26429 
    3400    8.3820749   -28.594874   -20.212799    129.95301 
    3500    8.3989604    -28.61445   -20.215489     130.2148 
    3600    8.1428714   -28.356242   -20.213371    126.24448 
    3700    8.2793841    -28.49308   -20.213696    128.36093 
    3800     8.223769   -28.436693   -20.212924    127.49869 
    3900    8.0703525   -28.283082    -20.21273    125.12017 
    4000    8.5331005   -28.749506   -20.216405    132.29447 
    4100    8.1334435   -28.350477   -20.217033    126.09831 
    4200    8.0109757   -28.226664   -20.215689    124.19961 
    4300    8.0830293   -28.297691   -20.214662    125.31671 
    4400    8.1810964   -28.396402   -20.215305    126.83711 
    4500    7.9648983    -28.18237   -20.217472    123.48524 
    4600    8.1780949   -28.393463   -20.215368    126.79057 
    4700    8.3268456   -28.540287   -20.213441    129.09676 
    4800    8.3395491   -28.555364   -20.215815    129.29371 
    4900    8.5647431   -28.782419   -20.217676    132.78504 
    5000    8.3118701   -28.528766   -20.216896    128.86458 
    5100    7.9868551    -28.20356   -20.216705    123.82565 
    5200    7.9216922   -28.140201   -20.218509    122.81539 
    5300    8.2232911   -28.444755   -20.221463    127.49128 
    5400    8.4177973   -28.635861   -20.218064    130.50684 
    5500    7.9545189   -28.167248   -20.212729    123.32432 
    5600    8.3303324   -28.543975   -20.213643    129.15081 
    5700    8.4531135   -28.666874    -20.21376    131.05437 
    5800    8.4093009   -28.624348   -20.215047    130.37512 
    5900    8.1151557   -28.328081   -20.212925    125.81478 
    6000    8.2075147   -28.421609   -20.214094    127.24669 
    6100    7.7932259   -28.010584   -20.217358    120.82369 
    6200    8.0811113   -28.296751    -20.21564    125.28697 
    6300    8.2048424    -28.42072   -20.215878    127.20526 
    6400    8.3017725   -28.514899   -20.213126    128.70803 
    6500    7.9620139   -28.174424    -20.21241    123.44052 
    6600    8.2324691   -28.441492   -20.209023    127.63357 
    6700    8.1529591   -28.364923   -20.211964    126.40087 
    6800    8.3416669   -28.554532   -20.212865    129.32654 
    6900     8.199408   -28.418108     -20.2187      127.121 
    7000    8.3425337   -28.558679   -20.216145    129.33998 
    7100    8.1734587   -28.387795   -20.214337    126.71869 
    7200    8.3938047   -28.610913   -20.217108    130.13487 
    7300    8.0263399   -28.244131   -20.217791    124.43781 
    7400    8.0919865   -28.305556    -20.21357    125.45558 
    7500    8.1310357   -28.343515   -20.212479    126.06098 
    7600    8.1305603    -28.34676   -20.216199    126.05361 
    7700    7.9203612   -28.137326   -20.216965    122.79475 
    7800    8.3020565   -28.518331   -20.216274    128.71243 
    7900     8.198827   -28.415803   -20.216976      127.112 
    8000    8.1402328   -28.359322   -20.219089    126.20357 
    8100    8.4982872   -28.715973   -20.217685    131.75473 
    8200    8.2377031   -28.456923    -20.21922    127.71472 
    8300    7.9951241   -28.214995   -20.219871    123.95385 
    8400    8.1402039   -28.358466   -20.218262    126.20312 
    8500    8.6925103   -28.908986   -20.216475     134.7659 
    8600    8.3546075   -28.571771   -20.217164    129.52717 
    8700    8.0617847   -28.278306   -20.216522    124.98734 
    8800    8.2742181   -28.491006   -20.216788    128.28083 
    8900    8.0452968   -28.263558   -20.218261    124.73171 
    9000    8.1419386   -28.360006   -20.218067    126.23002 
    9100     8.235881   -28.457349   -20.221468    127.68647 
    9200    8.1289202   -28.348334   -20.219414    126.02818 
    9300    8.1571503   -28.374642   -20.217491    126.46585 
    9400    8.2883209   -28.501766   -20.213445    128.49948 
    9500    8.4046528   -28.618102   -20.213449    130.30305 
    9600    8.0590455   -28.273633   -20.214588    124.94487 
    9700     8.139789   -28.355354   -20.215565    126.19669 
    9800    8.3849413   -28.599226   -20.214284    129.99745 
    9900    8.5215717   -28.736297   -20.214725    132.11573 
   10000    8.3745205   -28.587009   -20.212488    129.83589 
   10100    8.0499131   -28.260782   -20.210869    124.80328 
   10200    8.2320652   -28.443456   -20.211391    127.62731 
   10300     8.263591   -28.475491     -20.2119    128.11608 
   10400    8.2903008   -28.505469   -20.215169    128.53018 
   10500    8.4430415   -28.659573   -20.216532    130.89822 
   10600    8.0874331   -28.301524   -20.214091    125.38498 
   10700    8.2169525   -28.429564   -20.212611    127.39301 
   10800    8.2758822    -28.48868   -20.212798    128.30664 
   10900    8.5483887   -28.761193   -20.212805    132.53149 
   11000    8.2841866   -28.499171   -20.214984    128.43538 
   11100     8.216784   -28.434854    -20.21807     127.3904 
   11200    8.1791717   -28.393329   -20.214157    126.80727 
   11300     8.201896   -28.418819   -20.216923    127.15958 
   11400    7.9580911   -28.175766   -20.217675     123.3797 
   11500    8.4307799   -28.652388   -20.221608    130.70812 
   11600    7.9537933    -28.17442   -20.220627    123.31307 
   11700    8.0069943    -28.22751   -20.220515    124.13788 
   11800    8.1491649   -28.367233   -20.218068    126.34205 
   11900    8.4199372    -28.63782   -20.217883    130.54002 
   12000    8.2207955    -28.43951   -20.218714    127.45259 
   12100    7.9898848   -28.205648   -20.215763    123.87262 
   12200    7.9539703   -28.167416   -20.213446    123.31582 
   12300    8.2339071   -28.445368   -20.211461    127.65587 
   12400    8.0785114    -28.29279   -20.214279    125.24666 
   12500    8.1123693   -28.325625   -20.213255    125.77158 
   12600    8.2379755   -28.453995   -20.216019    127.71894 
   12700     8.274634   -28.490404    -20.21577    128.28728 
   12800    8.2462829   -28.461153   -20.214871    127.84774 
   12900    8.3567354   -28.570898   -20.214163    129.56016 
   13000    8.1749284   -28.388696   -20.213767    126.74148 
   13100    8.2149226    -28.42831   -20.213387    127.36154 
   13200    8.2998388   -28.512836   -20.212998    128.67805 
   13300    8.3527891   -28.565485   -20.212695    129.49897 
   13400    8.1906654   -28.403865   -20.213199    126.98546 
   13500    8.2135032   -28.426693   -20.213189    127.33953 
   13600    8.1708885   -28.381825   -20.210937    126.67885 
   13700    8.0201256   -28.234524   -20.214398    124.34147 
   13800    8.3602187   -28.573347   -20.213129    129.61416 
   13900    8.1801975   -28.394664   -20.214467    126.82317 
   14000    8.5058593   -28.722971   -20.217112    131.87213 
   14100    8.2079163   -28.423279   -20.215363    127.25291 
   14200    8.1893562   -28.402798   -20.213441    126.96516 
   14300    8.3395459   -28.549659   -20.210113    129.29366 
   14400     8.320956   -28.530162   -20.209206    129.00545 
   14500    8.4070095   -28.618865   -20.211856    130.33959 
   14600    8.0774639   -28.288472   -20.211008    125.23042 
   14700    8.0925947   -28.305519   -20.212924      125.465 
   14800    8.3470663   -28.563031   -20.215964    129.41025 
   14900    8.2628801   -28.477031   -20.214151    128.10505 
   15000    8.6661479    -28.88326   -20.217112    134.35719 
   15100    8.2178779   -28.436144   -20.218266    127.40735 
   15200    8.3431116   -28.560293   -20.217181    129.34894 
   15300    8.5728097   -28.787804   -20.214995     132.9101 
   15400     8.145144   -28.361275   -20.216131    126.27971 
   15500      8.19568    -28.41305   -20.217371    127.06321 
   15600    8.0591383   -28.273357   -20.214219    124.94631 
   15700    8.2483108   -28.462853   -20.214542    127.87918 
   15800    8.1454063   -28.359238   -20.213832    126.28378 
   15900    8.3083874   -28.524465   -20.216078    128.81058 
   16000    8.1553657   -28.369445   -20.214079    126.43819 
   16100    8.3062294   -28.518392   -20.212163    128.77713 
   16200    8.1519841   -28.364398   -20.212414    126.38576 
   16300    8.4374982   -28.650694   -20.213195    130.81228 
   16400    8.5189587   -28.731885   -20.212927    132.07521 
   16500    8.7374492   -28.951864   -20.214415    135.46262 
   16600    8.1334542    -28.34484   -20.211386    126.09848 
   16700    8.2741757   -28.488277   -20.214101    128.28018 
   16800    8.0365645   -28.254832   -20.218267    124.59633 
   16900    8.2356031   -28.449898   -20.214295    127.68216 
   17000    7.9786727   -28.195331   -20.216658    123.69879 
   17100    7.8835365   -28.100008   -20.216472    122.22383 
   17200    8.0950918   -28.311691   -20.216599    125.50372 
   17300    8.3329624   -28.548473    -20.21551    129.19159 
   17400    8.2320082   -28.446487   -20.214479    127.62643 
   17500    8.3954094   -28.604826   -20.209417    130.15975 
   17600    8.5211379   -28.732664   -20.211527      132.109 
   17700    8.4697422    -28.68281   -20.213067    131.31218 
   17800    8.3138431    -28.53089   -20.217047    128.89517 
   17900    8.3623496   -28.576518   -20.214168     129.6472 
   18000    8.4156383   -28.630261   -20.214623    130.47337 
   18100     8.245653   -28.463215   -20.217562    127.83797 
   18200    8.2135098   -28.431524   -20.218014    127.33963 
   18300    7.9703771   -28.187487    -20.21711    123.57018 
   18400    7.6995891   -27.917014   -20.217425    119.37197 
   18500    8.7200659   -28.936172   -20.216107    135.19312 
   18600    8.4680139   -28.685834    -20.21782    131.28538 
   18700    8.1442857   -28.361858   -20.217573     126.2664 
   18800    8.1192004   -28.335869   -20.216668    125.87749 
   18900    8.0699181   -28.286131   -20.216213    125.11343 
   19000    8.1145573   -28.329745   -20.215188     125.8055 
   19100    8.3787903   -28.597895   -20.219104    129.90209 
   19200    8.6312406   -28.849074   -20.217833      133.816 
   19300    8.2982071   -28.513151   -20.214944    128.65275 
   19400    8.2880136   -28.505969   -20.217955    128.49472 
   19500    8.6012687   -28.817626   -20.216358    133.35132 
   19600    8.3853258   -28.605013   -20.219687    130.00341 
   19700    8.4906419    -28.70551   -20.214868     131.6362 
   19800    8.3533779   -28.565494   -20.212116     129.5081 
   19900     8.227739   -28.439798   -20.212059    127.56024 
   20000    8.3691253   -28.583427   -20.214302    129.75225 
   20100    8.3553295   -28.571224   -20.215894    129.53836 
   20200    8.3524907    -28.56685   -20.214359    129.49435 
   20300    7.9654184    -28.17893   -20.213512     123.4933 
   20400     8.171662   -28.385196   -20.213534    126.69084 
   20500    8.0213778   -28.238097   -20.216719    124.36088 
   20600    8.5778809   -28.792441    -20.21456    132.98873 
   20700    8.2256542   -28.436218   -20.210564    127.52792 
   20800    8.8445753   -29.055732   -20.211157    137.12347 
   20900    8.5222298   -28.730875   -20.208645    132.12593 
   21000    8.4111436   -28.622486   -20.211342    130.40368 
   21100    8.2588447    -28.47384   -20.214996    128.04249 
   21200    8.1433308   -28.358523   -20.215192     126.2516 
   21300    8.1832104   -28.398537   -20.215327    126.86988 
   21400     8.292119   -28.505193   -20.213074    128.55837 
   21500    8.0951727   -28.306961   -20.211788    125.50497 
   21600    8.0906511   -28.308022   -20.217371    125.43487 
   21700    8.3306217   -28.545553   -20.214931     129.1553 
   21800    8.4192379   -28.638731   -20.219494    130.52918 
   21900    8.1258102   -28.343179   -20.217369    125.97997 
   22000    7.9312962   -28.147435   -20.216139    122.96428 
   22100    7.7909371   -28.009712   -20.218775     120.7882 
   22200    8.1894942   -28.407319   -20.217825     126.9673 
   22300    8.0462255   -28.261471   -20.215246    124.74611 
   22400    8.5838172   -28.801454   -20.217637    133.08076 
   22500    8.2952354   -28.511565    -20.21633    128.60668 
   22600    8.2487245    -28.46494   -20.216216    127.88559 
   22700    8.2758238   -28.491582   -20.215759    128.30573 
   22800    8.5497126   -28.764196   -20.214483    132.55201 
   22900    8.0443785   -28.256031   -20.211652    124.71748 
   23000    8.1434975   -28.357135   -20.213638    126.25418 
   23100    8.4001576   -28.613156   -20.212999    130.23336 
   23200    8.2842416   -28.498075   -20.213834    128.43624 
   23300    8.0541136   -28.266718   -20.212604    124.86841 
   23400    8.3789687   -28.595693   -20.216725    129.90486 
   23500    8.3081519   -28.522494   -20.214343    128.80693 
   23600    8.1028379   -28.319112   -20.216274    125.62381 
   23700    7.9992426   -28.214801   -20.215559     124.0177 
   23800    8.3076298   -28.521601   -20.213971    128.79884 
   23900    8.0539703   -28.270426   -20.216455    124.86618 
   24000    8.2055426   -28.420908   -20.215365    127.21611 
   24100    8.3881385   -28.600814   -20.212676    130.04702 
   24200     8.373765   -28.586711   -20.212946    129.82418 
   24300    8.2462761   -28.457159   -20.210883    127.84763 
   24400    8.3851963   -28.594232   -20.209036    130.00141 
   24500    7.9952834   -28.204699   -20.209416    123.95632 
   24600    8.1162393   -28.327696   -20.211457    125.83158 
   24700    8.3481379   -28.560239   -20.212101    129.42686 
   24800    8.0990717   -28.313155   -20.214083    125.56542 
   24900    8.1161737   -28.326997   -20.210824    125.83057 
   25000    7.8646555   -28.074889   -20.210233    121.93111 
   25100    8.2929474   -28.505493   -20.212546    128.57121 
   25200     8.324064   -28.537836   -20.213772    129.05363 
   25300     8.038397   -28.251323   -20.212926    124.62474 
   25400    8.3217305   -28.537434   -20.215704    129.01745 
   25500    8.1908792   -28.407798   -20.216918    126.98878 
   25600    8.0015915   -28.217087   -20.215495    124.05412 
   25700    8.3522522   -28.569228   -20.216976    129.49065 
   25800    8.0736032   -28.289612   -20.216009    125.17057 
   25900    8.2723912   -28.488662   -20.216271    128.25251 
   26000    8.3572456   -28.574612   -20.217367    129.56807 
   26100    8.3083071   -28.526703   -20.218396    128.80934 
   26200    8.1015257   -28.318622   -20.217096    125.60347 
   26300    8.3112515   -28.527975   -20.216724    128.85499 
   26400    8.0337327   -28.251797   -20.218065    124.55243 
   26500    8.1743575   -28.389724   -20.215367    126.73263 
   26600    8.2876533   -28.503607   -20.215954    128.48913 
   26700    7.8107117   -28.019853   -20.209141    121.09478 
   26800     8.336122   -28.547391   -20.211269    129.24057 
   26900    8.3044858    -28.51761   -20.213124     128.7501 
   27000    8.4716946   -28.683094   -20.211399    131.34245 
   27100    8.2041483   -28.420351   -20.216203     127.1945 
   27200    8.2085115   -28.421707   -20.213195    127.26214 
   27300    7.9177347   -28.131169   -20.213435    122.75403 
   27400    7.8190119   -28.033603   -20.214591    121.22346 
   27500    8.3294597    -28.54709   -20.217631    129.13728 
   27600    8.0060053   -28.222144   -20.216138    124.12255 
   27700    8.1941807   -28.411354   -20.217173    127.03996 
   27800    8.2326905   -28.446772   -20.214082    127.63701 
   27900    8.4506105   -28.665594   -20.214983    131.01557 
   28000    8.4996293   -28.711993   -20.212364    131.77554 
   28100    8.3736186   -28.588282   -20.214663    129.82191 
   28200    8.4118372   -28.623293   -20.211455    130.41444 
   28300    8.2921312    -28.50282   -20.210689    128.55855 
   28400    8.4817581   -28.693862   -20.212104    131.49847 
   28500    8.8317998   -29.048474   -20.216674     136.9254 
   28600    8.3226041   -28.539437   -20.216833      129.031 
   28700    8.6866473   -28.904725   -20.218077    134.67501 
   28800    8.3253206   -28.541278   -20.215958    129.07311 
   28900    8.3394302   -28.557058   -20.217628    129.29186 
   29000    8.1783013   -28.397007   -20.218706    126.79377 
   29100    8.2037513   -28.423739   -20.219988    127.18834 
   29200    8.1604736   -28.380592   -20.220119    126.51738 
   29300    8.1422645   -28.360135    -20.21787    126.23507 
   29400     8.455609   -28.670981   -20.215372    131.09306 
   29500    8.2180127   -28.435747   -20.217734    127.40945 
   29600    8.1866431   -28.403936   -20.217293     126.9231 
   29700    8.6049164   -28.824472   -20.219556    133.40788 
   29800     8.110901   -28.331974   -20.221073    125.74882 
   29900    8.4111964   -28.629663   -20.218467     130.4045 
   30000    8.2300721   -28.450068   -20.219996    127.59641 
   30100    8.2665513   -28.483911    -20.21736    128.16197 
   30200    8.2791823   -28.492045   -20.212863     128.3578 
   30300    8.1819813   -28.398438   -20.216457    126.85083 
   30400    8.4668557   -28.684541   -20.217685    131.26743 
   30500    8.1869349   -28.405823   -20.218889    126.92762 
   30600    8.2430623   -28.454906   -20.211844    127.79781 
   30700    8.3818292   -28.592139    -20.21031     129.9492 
   30800    8.1774651   -28.390341   -20.212876    126.78081 
   30900    8.0712758   -28.286447   -20.215171    125.13448 
   31000    8.7599617   -28.975473   -20.215511    135.81165 
   31100    8.3390449   -28.553061   -20.214016    129.28589 
   31200    8.4847425   -28.702879   -20.218137    131.54474 
   31300    8.3538441   -28.569667   -20.215823    129.51533 
   31400    8.1430917   -28.360695   -20.217603    126.24789 
   31500    8.6971995   -28.911036   -20.213837     134.8386 
   31600    8.2687287   -28.486079   -20.217351    128.19573 
   31700    8.5465089   -28.764825   -20.218316    132.50234 
   31800    8.4946999   -28.710438   -20.215738    131.69912 
   31900    8.3337063   -28.550164   -20.216458    129.20312 
   32000    8.1298731   -28.345301   -20.215428    126.04296 
   32100    8.4360714   -28.649513   -20.213441    130.79016 
   32200    8.5089454   -28.719689   -20.210744    131.91997 
   32300    8.1347844   -28.346103   -20.211319     126.1191 
   32400    8.4871815   -28.697353   -20.210172    131.58255 
   32500    8.6658325   -28.876327   -20.210495     134.3523 
   32600    8.2896773   -28.501892   -20.212215    128.52051 
   32700    8.4491459   -28.661309   -20.212163    130.99286 
   32800    8.2833079   -28.495526   -20.212218    128.42176 
   32900     8.316941   -28.527876   -20.210935     128.9432 
   33000    8.5197405   -28.732233   -20.212493    132.08734 
   33100    8.2742364   -28.487739   -20.213503    128.28112 
   33200    8.3115075   -28.522824   -20.211317    128.85896 
   33300    8.2660628   -28.475383    -20.20932     128.1544 
   33400    8.5291381   -28.738987   -20.209849    132.23303 
   33500    8.3515874   -28.563617   -20.212029    129.48034 
   33600    8.4851768   -28.695158   -20.209981    131.55147 
   33700    8.2517867   -28.462265   -20.210479    127.93307 
   33800    8.3385718    -28.54939   -20.210818    129.27855 
   33900    8.3133064   -28.521682   -20.208376    128.88685 
   34000    8.3534473   -28.564267    -20.21082    129.50918 
   34100    7.9717887   -28.181824   -20.210035    123.59207 
   34200    8.3887336   -28.599745   -20.211011    130.05625 
   34300     8.397401   -28.611417   -20.214016    130.19062 
   34400    8.3774776   -28.592273   -20.214795    129.88174 
   34500    8.3234373   -28.538879   -20.215442    129.04391 
   34600    8.4039441   -28.619137   -20.215193    130.29207 
   34700    8.3743309   -28.593306   -20.218975    129.83295 
   34800     8.442721   -28.660036   -20.217315    130.89325 
   34900    8.3759764    -28.58988   -20.213904    129.85846 
   35000    8.4301212    -28.64377   -20.213649    130.69791 
   35100    8.3374011   -28.552404   -20.215003     129.2604 
   35200    8.3320317   -28.547543   -20.215511    129.17716 
   35300    7.9022999   -28.120175   -20.217875    122.51473 
   35400    8.2325284   -28.450732   -20.218204    127.63449 
   35500    8.3337349   -28.552703   -20.218968    129.20356 
   35600    8.2419891   -28.458523   -20.216534    127.78117 
   35700     8.560095   -28.777718   -20.217623    132.71298 
   35800    8.5071515   -28.721367   -20.214216    131.89216 
   35900    8.2808659   -28.490853   -20.209987     128.3839 
   36000    8.1819583   -28.394949   -20.212991    126.85047 
   36100    8.3736388   -28.589086   -20.215447    129.82222 
   36200    8.1140582   -28.333275   -20.219217    125.79777 
   36300    8.0899953   -28.307923   -20.217928     125.4247 
   36400    7.9927513    -28.20498   -20.212229    123.91706 
   36500    8.2669966   -28.481149   -20.214152    128.16888 
   36600    8.4377536   -28.646063   -20.208309    130.81624 
   36700    8.3108259   -28.516113   -20.205288    128.84839 
   36800    8.3126832   -28.521383   -20.208699    128.87719 
   36900    8.3968098   -28.606405   -20.209595    130.18146 
   37000    8.5551529   -28.767005   -20.211852    132.63636 
   37100     8.290582   -28.503961   -20.213379    128.53454 
   37200    8.2782285   -28.488528   -20.210299    128.34301 
   37300    8.3011203   -28.511105   -20.209984    128.69792 
   37400    8.1460104   -28.354382   -20.208371    126.29314 
   37500    8.2851701   -28.499456   -20.214286    128.45063 
   37600    8.4136137   -28.628276   -20.214662    130.44198 
   37700     8.523272    -28.73813   -20.214858    132.14209 
   37800    8.3327425   -28.551188   -20.218445    129.18818 
   37900    8.2896843    -28.50704   -20.217355    128.52062 
   38000    8.1770541   -28.391205    -20.21415    126.77444 
   38100    8.3308552   -28.543662   -20.212806    129.15892 
   38200    8.1895836   -28.406753   -20.217169    126.96869 
   38300    8.0936954   -28.311184   -20.217489    125.48207 
   38400    8.2473789   -28.461786   -20.214407    127.86473 
   38500    8.0225167   -28.234933   -20.212416    124.37854 
   38600    8.1379077    -28.35186   -20.213953    126.16752 
   38700    8.2901159   -28.500486   -20.210371    128.52731 
   38800    8.2873425   -28.500274   -20.212931    128.48431 
   38900    8.4190114   -28.631228   -20.212216    130.52566 
   39000    8.3227188   -28.538146   -20.215427    129.03277 
   39100    8.0477969    -28.26373   -20.215933    124.77047 
   39200    8.2898725   -28.507165   -20.217293    128.52354 
   39300    8.2084315   -28.426472   -20.218041     127.2609 
   39400    8.3218753   -28.538256   -20.216381     129.0197 
   39500    8.4076828   -28.625925   -20.218243    130.35003 
   39600    8.2726766   -28.489703   -20.217027    128.25694 
   39700    8.2817327   -28.497867   -20.216134    128.39734 
   39800    8.1893762   -28.404929   -20.215553    126.96547 
   39900    8.1422133   -28.356608   -20.214395    126.23428 
   40000    8.0943867   -28.306535   -20.212149    125.49279 
   40100    8.3336214   -28.547312    -20.21369    129.20181 
   40200    8.4670707   -28.682238   -20.215167    131.27076 
   40300    8.4055447    -28.62104   -20.215495    130.31688 
   40400     8.234147   -28.449187    -20.21504    127.65959 
   40500    8.2804169   -28.494955   -20.214538    128.37694 
   40600     7.988547   -28.202295   -20.213748    123.85188 
   40700    8.4118932   -28.623206   -20.211313    130.41531 
   40800     8.416385   -28.629696   -20.213311    130.48495 
   40900    8.3907694   -28.607035   -20.216265    130.08781 
   41000    8.5090586   -28.726032   -20.216974    131.92173 
   41100     8.066155   -28.285557   -20.219402    125.05509 
   41200    8.2478978   -28.466281   -20.218383    127.87277 
   41300    8.4290777   -28.647078      -20.218    130.68173 
   41400    8.3356729   -28.552066   -20.216393    129.23361 
   41500     8.080155   -28.298343   -20.218188    125.27214 
   41600    8.2240194   -28.442662   -20.218642    127.50257 
   41700    8.3215896   -28.536443   -20.214853    129.01527 
   41800     8.329611   -28.542491    -20.21288    129.13963 
   41900    8.2571484   -28.469829    -20.21268    128.01619 
   42000    8.2383439   -28.450621   -20.212277    127.72465 
   42100    8.4367746   -28.651252   -20.214478    130.80106 
   42200    7.8740475   -28.087031   -20.212983    122.07672 
   42300     8.018759   -28.232399    -20.21364    124.32028 
   42400     8.002066   -28.216274   -20.214208    124.06148 
   42500    8.4399326   -28.651135   -20.211203    130.85002 
   42600    8.4282223   -28.639874   -20.211652    130.66847 
   42700    8.3794765   -28.593304   -20.213828    129.91273 
   42800    8.2533385   -28.465049    -20.21171    127.95712 
   42900    8.2418416   -28.454834   -20.212993    127.77888 
   43000    8.3954698   -28.611024   -20.215554    130.16068 
   43100    8.3432953   -28.555965   -20.212669    129.35179 
   43200    8.0375388   -28.251356   -20.213818    124.61143 
   43300    8.2396321   -28.453521   -20.213889    127.74462 
   43400    8.6391531   -28.852855   -20.213702    133.93867 
   43500    8.5504952   -28.762523   -20.212028    132.56415 
   43600    8.2168304   -28.428727   -20.211897    127.39111 
   43700    8.3292179    -28.53862   -20.209402    129.13353 
   43800    8.2619611   -28.470848   -20.208887    128.09081 
   43900    8.0913481   -28.303103   -20.211754    125.44568 
   44000    8.3281219   -28.539892    -20.21177    129.11654 
   44100    7.9304456   -28.142651   -20.212206     122.9511 
   44200    8.4215711   -28.636232   -20.214661    130.56535 
   44300    8.2671678   -28.485869   -20.218702    128.17153 
   44400     7.899339   -28.115276   -20.215937    122.46883 
   44500    8.5006062   -28.715285   -20.214679    131.79068 
   44600    8.0836661   -28.297162   -20.213496    125.32658 
   44700    8.1782179   -28.392687   -20.214469    126.79248 
   44800    7.6540668   -27.866593   -20.212526    118.66621 
   44900    8.0925311   -28.305131   -20.212599    125.46402 
   45000     8.349734    -28.56478   -20.215046    129.45161 
   45100    8.3139228   -28.530332   -20.216409     128.8964 
   45200    8.1085944   -28.322929   -20.214335    125.71306 
   45300    8.1066297   -28.319804   -20.213174     125.6826 
   45400    8.3223768   -28.533897    -20.21152    129.02747 
   45500    7.9612386   -28.174801   -20.213562     123.4285 
   45600    7.9633947     -28.1796   -20.216205    123.46193 
   45700    8.0495069   -28.267187    -20.21768    124.79698 
   45800    8.2710132   -28.487467   -20.216454    128.23115 
   45900    8.6068232   -28.819623   -20.212799    133.43744 
   46000    8.5241392   -28.733278   -20.209138    132.15553 
   46100    8.2764585   -28.487327   -20.210868    128.31557 
   46200    8.4125877     -28.6286   -20.216012    130.42607 
   46300    8.3303224   -28.547667   -20.217345    129.15066 
   46400    8.2969719   -28.511885   -20.214913     128.6336 
   46500    8.0440295   -28.260802   -20.216773    124.71207 
   46600    8.2817624   -28.495846   -20.214083     128.3978 
   46700    8.3179911    -28.53515   -20.217159    128.95948 
   46800    8.2574175   -28.472964   -20.215547    128.02036 
   46900    8.3488004   -28.564934   -20.216133    129.43714 
   47000    8.4502633   -28.664989   -20.214726    131.01018 
   47100    8.2877817   -28.500314   -20.212532    128.49112 
   47200     8.505462   -28.719731   -20.214268    131.86597 
   47300     8.162698   -28.377091   -20.214393    126.55186 
   47400    8.1224395   -28.338898   -20.216458    125.92771 
   47500    8.4737318   -28.689745   -20.216013    131.37403 
   47600    8.1867128   -28.402329   -20.215616    126.92418 
   47700    8.4163607   -28.628853   -20.212492    130.48457 
   47800    7.9632196   -28.177617   -20.214397    123.45921 
   47900    8.0816217   -28.294692   -20.213071    125.29488 
   48000    7.8515126   -28.062056   -20.210544    121.72734 
   48100     8.398903   -28.610802     -20.2119    130.21391 
   48200    8.4607956   -28.675388   -20.214592    131.17347 
   48300    8.5584848   -28.769297   -20.210812    132.68802 
   48400    8.1916436   -28.402183   -20.210539    127.00063 
   48500    8.1316559    -28.34162   -20.209964     126.0706 
   48600      8.28302   -28.495052   -20.212032     128.4173 
   48700    8.2587707   -28.469641    -20.21087    128.04134 
   48800    8.2216388   -28.430974   -20.209335    127.46566 
   48900    7.9914025   -28.200147   -20.208745    123.89615 
   49000    8.3570738   -28.567373     -20.2103     129.5654 
   49100    8.7049542   -28.919491   -20.214536    134.95883 
   49200    8.5453876   -28.759535   -20.214147    132.48496 
   49300    8.1574824   -28.372011   -20.214529      126.471 
   49400    8.2933708   -28.510146   -20.216775    128.57777 
   49500    8.3540332   -28.570424   -20.216391    129.51826 
   49600    8.2111317   -28.428155   -20.217023    127.30276 
   49700    8.3268044    -28.54319   -20.216386    129.09612 
   49800    8.4408797   -28.655868   -20.214989     130.8647 
   49900    8.2626427   -28.474925   -20.212283    128.10137 
   50000    8.0103679   -28.224191   -20.213823    124.19019 
Loop time of 30.4333 on 1 procs for 50000 steps with 500 atoms

Performance: 141.950 ns/day, 0.169 hours/ns, 1642.939 timesteps/s
99.7% CPU use with 1 MPI tasks x no OpenMP threads

MPI task timing breakdown:
Section |  min time  |  avg time  |  max time  |%varavg| %total
---------------------------------------------------------------
Pair    | 27.003     | 27.003     | 27.003     |   0.0 | 88.73
Neigh   | 1.6211     | 1.6211     | 1.6211     |   0.0 |  5.33
Comm    | 0.76766    | 0.76766    | 0.76766    |   0.0 |  2.52
Output  | 0.20275    | 0.20275    | 0.20275    |   0.0 |  0.67
Modify  | 0.52948    | 0.52948    | 0.52948    |   0.0 |  1.74
Other   |            | 0.3089     |            |       |  1.01

Nlocal:    500 ave 500 max 500 min
Histogram: 1 0 0 0 0 0 0 0 0 0
Nghost:    2113 ave 2113 max 2113 min
Histogram: 1 0 0 0 0 0 0 0 0 0
Neighs:    26079 ave 26079 max 26079 min
Histogram: 1 0 0 0 0 0 0 0 0 0

Total # of neighbors = 26079
Ave neighs/atom = 52.158
Neighbor list builds = 1280
Dangerous builds = 0
Total wall time: 0:00:30
