500
Atoms. Timestep: 0
0 1 0.000000e+00 0.000000e+00 0.000000e+00
1 1 5.260000e-10 5.260000e-10 5.260000e-10
2 1 1.052000e-09 1.052000e-09 1.052000e-09
3 1 1.578000e-09 1.578000e-09 1.578000e-09
4 1 2.104000e-09 2.104000e-09 2.104000e-09
5 1 2.630000e-09 2.630000e-09 2.630000e-09
6 1 3.156000e-09 3.156000e-09 3.156000e-09
7 1 3.682000e-09 3.682000e-09 3.682000e-09
0 2 2.630000e-10 2.630000e-10 0.000000e+00
1 2 7.890000e-10 7.890000e-10 5.260000e-10
2 2 1.315000e-09 1.315000e-09 1.052000e-09
3 2 1.841000e-09 1.841000e-09 1.578000e-09
4 2 2.367000e-09 2.367000e-09 2.104000e-09
5 2 2.893000e-09 2.893000e-09 2.630000e-09
6 2 3.419000e-09 3.419000e-09 3.156000e-09
7 2 3.945000e-09 3.945000e-09 3.682000e-09
0 3 2.630000e-10 0.000000e+00 2.630000e-10
1 3 7.890000e-10 5.260000e-10 7.890000e-10
2 3 1.315000e-09 1.052000e-09 1.315000e-09
3 3 1.841000e-09 1.578000e-09 1.841000e-09
4 3 2.367000e-09 2.104000e-09 2.367000e-09
5 3 2.893000e-09 2.630000e-09 2.893000e-09
6 3 3.419000e-09 3.156000e-09 3.419000e-09
7 3 3.945000e-09 3.682000e-09 3.945000e-09
0 4 0.000000e+00 2.630000e-10 2.630000e-10
1 4 5.260000e-10 7.890000e-10 7.890000e-10
2 4 1.052000e-09 1.315000e-09 1.315000e-09
3 4 1.578000e-09 1.841000e-09 1.841000e-09
4 4 2.104000e-09 2.367000e-09 2.367000e-09
5 4 2.630000e-09 2.893000e-09 2.893000e-09
6 4 3.156000e-09 3.419000e-09 3.419000e-09
7 4 3.682000e-09 3.945000e-09 3.945000e-09
