LAMMPS (11 Aug 2017)
LAMMPS (11 Aug 2017)
LAMMPS (11 Aug 2017)
Total wall time: 0:00:00
Lattice spacing in x,y,z = 5.7 5.7 5.7
Created orthogonal box = (0 0 0) to (5.7 5.7 5.7)
  1 by 1 by 1 MPI processor grid
Total wall time: 0:00:00
LAMMPS (11 Aug 2017)
Total wall time: 0:00:00
Created 4 atoms
Replicating atoms ...
  orthogonal box = (0 0 0) to (28.5 28.5 28.5)
  1 by 1 by 1 MPI processor grid
  500 atoms
Neighbor list info ...
  update every 1 steps, delay 0 steps, check yes
  max neighbors/atom: 2000, page size: 100000
  master list distance cutoff = 10.5
  ghost atom cutoff = 10.5
  binsize = 5.25, bins = 6 6 6
  1 neighbor lists, perpetual/occasional/extra = 1 0 0
  (1) pair lj/cut, perpetual
      attributes: half, newton on
      pair build: half/bin/atomonly/newton
      stencil: half/bin/3d/newton
      bin: standard
Setting up Verlet run ...
  Unit style    : metal
  Current step  : 0
  Time step     : 0.001
Per MPI rank memory allocation (min/avg/max) = 3.823 | 3.823 | 3.823 Mbytes
Step KinEng PotEng TotEng Press Temp 
       0    16.125203   -36.291337   -20.166134   -2011.8511          250 
     100    12.703445   -32.831835    -20.12839   -599.67144    196.95016 
     200    7.6840327    -27.81524   -20.131207    1290.4368    119.13079 
     300    8.6437242   -28.661322   -20.017597    1074.2529    134.00954 
     400    8.5306492   -28.365104   -19.834455    1162.0892    132.25646 
     500    8.9094397    -28.52582    -19.61638    1114.6715    138.12911 
     600    8.9847411   -28.393764   -19.409023    1151.2555    139.29656 
     700    9.3658162    -28.59002   -19.224203    1099.0405    145.20462 
     800    9.3844954   -28.417982   -19.033487    1176.9385    145.49422 
     900    9.2342128   -28.064051   -18.829839    1313.0488    143.16429 
    1000      9.50095   -28.102409   -18.601459    1301.4263     147.2997 
    1100    10.075649   -28.422746   -18.347097    1182.2158    156.20964 
    1200    10.461209   -28.536042   -18.074833    1164.4506    162.18724 
    1300    9.9638633   -27.761822   -17.797958    1441.0291    154.47656 
    1400    9.6309545   -27.165722   -17.534767    1663.1932    149.31524 
    1500    10.062517   -27.316756   -17.254239    1632.3994    156.00606 
    1600    10.335088   -27.304283   -16.969194    1637.5452    160.23191 
    1700    10.878219   -27.540337   -16.662118    1578.2249    168.65243 
    1800    10.777063   -27.130367   -16.353304    1727.5569    167.08415 
    1900    10.935562   -26.982721   -16.047159    1806.6894    169.54146 
    2000    11.071206   -26.805408   -15.734203    1899.8279    171.64444 
    2100    11.070245   -26.492118   -15.421872    2025.0668    171.62955 
    2200    11.327035    -26.42531   -15.098275    2094.8247    175.61074 
    2300     11.57714    -26.35099    -14.77385    2125.9679    179.48828 
    2400    11.937872   -26.373698   -14.435827    2135.6624    185.08095 
    2500    11.637193   -25.738955   -14.101761    2356.4947    180.41933 
    2600    12.462761    -26.22505   -13.762289    2226.0869    193.21866 
    2700    12.546838   -25.963043   -13.416206    2300.1734    194.52216 
    2800    12.691509   -25.765672   -13.074164    2376.5487     196.7651 
    2900    13.071481   -25.799601    -12.72812    2397.9293    202.65607 
    3000    13.136969   -25.521965   -12.384996    2510.6019    203.67137 
    3100     13.48557   -25.520971   -12.035401    2497.7803    209.07597 
    3200    13.876751   -25.562182   -11.685431    2496.1464    215.14072 
    3300    14.334297   -25.664508   -11.330211    2473.0156    222.23437 
    3400    14.265539   -25.254314   -10.988776     2633.808    221.16836 
    3500    14.194792   -24.850122    -10.65533    2793.9076    220.07152 
    3600    14.350014    -24.68196   -10.331945    2884.3424    222.47804 
    3700     14.62139   -24.627062   -10.005672    2923.3696    226.68536 
    3800    14.755005   -24.436171   -9.6811666    2976.6552    228.75688 
    3900    15.642317   -24.994845   -9.3525278    2832.1594    242.51348 
    4000    15.394706   -24.433497   -9.0387913    3020.6882    238.67461 
    4100    15.694176   -24.433184   -8.7390074    3056.9098     243.3175 
    4200    15.591981   -24.039737   -8.4477559    3205.8508    241.73309 
    4300    16.035205   -24.202586   -8.1673814    3208.2482     248.6047 
    4400    16.139534   -24.036552   -7.8970186    3260.8254    250.22218 
    4500    15.941489   -23.576172   -7.6346825    3370.9476    247.15176 
    4600    16.342686   -23.730968   -7.3882829    3347.0793    253.37178 
    4700    16.341227   -23.495437   -7.1542102    3423.4441    253.34917 
    4800    16.385432   -23.318934    -6.933502    3459.0214    254.03451 
    4900    17.051987   -23.772137   -6.7201497    3321.3114    264.36856 
    5000    16.958936   -23.489145   -6.5302085    3391.9398    262.92593 
    5100    16.643131   -23.000454   -6.3573235     3551.608    258.02978 
    5200    17.820698   -24.026504   -6.2058055    3266.2396    276.28642 
    5300    17.455471   -23.541972    -6.086501     3380.007    270.62406 
    5400    17.057129   -23.047977   -5.9908482    3520.2006    264.44828 
    5500     16.91104   -22.835941   -5.9249015    3587.1049    262.18336 
    5600    17.330673   -23.205748   -5.8750757    3489.6395    268.68922 
    5700    17.381913   -23.238258   -5.8563453    3487.9464    269.48363 
    5800     17.14986   -23.014966   -5.8651064    3540.1605    265.88595 
    5900    17.790031   -23.683653   -5.8936222    3324.6281    275.81096 
    6000    17.692592    -23.64651   -5.9539183    3358.6315    274.30029 
    6100    17.274967   -23.323601   -6.0486337    3475.4721    267.82558 
    6200    16.939899   -23.109088   -6.1691886    3520.0803    262.63079 
    6300    17.366794   -23.669083   -6.3022886    3351.7827    269.24923 
    6400    16.713862   -23.171989   -6.4581275    3492.1961    259.12638 
    6500    17.265255   -23.891374   -6.6261189    3255.5694    267.67501 
    6600    16.726916   -23.536521   -6.8096049    3363.2532    259.32876 
    6700    16.458487    -23.46005   -7.0015636    3402.4856    255.16712 
    6800    16.010829    -23.20266   -7.1918314     3479.687    248.22678 
    6900    15.835419   -23.199213   -7.3637949    3426.0409    245.50727 
    7000     16.45172   -23.990735   -7.5390151    3148.7427    255.06222 
    7100    15.692219   -23.408315   -7.7160956    3319.1481    243.28716 
    7200    15.614059   -23.487899   -7.8738401    3315.8429    242.07538 
    7300    15.918074   -23.931878   -8.0138039    3165.6671    246.78874 
    7400    16.078042   -24.230207    -8.152165     3072.435    249.26884 
    7500      16.1022   -24.392789   -8.2905891    3032.3257    249.64337 
    7600    14.999898   -23.421479   -8.4215809    3326.4961    232.55363 
    7700    16.454896   -24.985862   -8.5309664    2862.6965    255.11145 
    7800    15.482574   -24.124181    -8.641607    3125.6979    240.03688 
    7900    15.716206   -24.455982   -8.7397759    3005.1503    243.65904 
    8000    15.735596   -24.567028   -8.8314318    2965.5128    243.95965 
    8100    16.090973   -25.003816   -8.9128432    2822.9601    249.46931 
    8200    15.028441   -24.014854    -8.986413    3102.1867    232.99616 
    8300    15.651287   -24.695494   -9.0442076    2894.5274    242.65255 
    8400     15.20799   -24.306255   -9.0982651    3010.7858    235.77982 
    8500    15.373297   -24.501626   -9.1283286    2980.9177    238.34269 
    8600    14.824169   -23.963795   -9.1396261    3165.1994    229.82919 
    8700    15.428301   -24.565345   -9.1370431    2986.4638    239.19546 
    8800    15.503182   -24.616535    -9.113353     2968.586    240.35639 
    8900    14.774273   -23.846541    -9.072268    3184.6533    229.05561 
    9000    15.048072   -24.059638   -9.0115662    3134.2495     233.3005 
    9100    14.938273   -23.868132   -8.9298599    3203.4945    231.59821 
    9200    15.523551   -24.350199   -8.8266475    3037.1526    240.67219 
    9300    16.077551   -24.787022   -8.7094714    2895.8399    249.26121 
    9400     15.78221   -24.370849   -8.5886389     3030.749    244.68234 
    9500    15.316344   -23.780323   -8.4639784    3208.0603    237.45971 
    9600    16.728823   -25.059577   -8.3307539    2826.1308    259.35834 
    9700    16.740535   -24.942488   -8.2019522     2845.238    259.53992 
    9800    16.032603   -24.118112    -8.085509    3113.1374    248.56435 
    9900    16.844827   -24.815765   -7.9709383    2935.6151    261.15682 
   10000    16.063262   -23.927972   -7.8647099    3227.0947    249.03969 
   10100    15.808411   -23.572023   -7.7636128    3368.0797    245.08855 
   10200    15.667982   -23.325807   -7.6578248    3463.0404    242.91139 
   10300    15.588835   -23.137584   -7.5487492    3497.1279    241.68432 
   10400    16.276289   -23.705994    -7.429705    3318.2544    252.34239 
   10500    15.849624   -23.161044   -7.3114205    3483.7516     245.7275 
   10600    16.925297   -24.115443   -7.1901457    3184.1653     262.4044 
   10700    16.317331   -23.404919   -7.0875884    3375.9058    252.97869 
   10800    16.838159   -23.830201   -6.9920428    3251.0407    261.05343 
   10900      16.6757   -23.580756   -6.9050558    3336.8093    258.53474 
   11000    16.407362   -23.235246   -6.8278845    3460.7393     254.3745 
   11100    16.639895   -23.402915   -6.7630199    3404.6261    257.97963 
   11200    16.893362   -23.605532     -6.71217    3335.6966     261.9093 
   11300    17.031184   -23.705667   -6.6744827    3315.0311    264.04604 
   11400    16.493809   -23.143993   -6.6501844    3488.6199    255.71475 
   11500    17.269777     -23.9093   -6.6395233    3249.1771    267.74511 
   11600    17.026544   -23.667899   -6.6413543    3327.2272     263.9741 
   11700    16.344782   -23.007014   -6.6622324    3546.7821    253.40428 
   11800    17.436842   -24.133619   -6.6967768    3182.3953    270.33523 
   11900    17.301868   -24.065592   -6.7637243    3199.3821    268.24263 
   12000    16.855347   -23.704831   -6.8494836    3374.5969    261.31992 
   12100    15.987808   -22.932034   -6.9442256    3595.1611    247.86987 
   12200    16.942664   -23.985507   -7.0428425    3259.8944    262.67365 
   12300    16.906194   -24.062687   -7.1564929    3203.6271    262.10823 
   12400    16.953551   -24.238642   -7.2850914    3123.7579    262.84244 
   12500    16.383478   -23.809446   -7.4259674     3248.167    254.00422 
   12600    16.233102   -23.799284   -7.5661824     3222.157    251.67283 
   12700    16.372976   -24.088938   -7.7159622     3144.158    253.84139 
   12800    16.417234   -24.276675   -7.8594412    3107.4538    254.52756 
   12900    15.512146   -23.512507   -8.0003612     3316.004    240.49535 
   13000    15.507589   -23.638322   -8.1307324    3264.6685    240.42471 
   13100    16.164285    -24.41845   -8.2541649    3038.8579    250.60591 
   13200    16.159074   -24.538668   -8.3795937    3013.6735    250.52512 
   13300    15.720043   -24.210842   -8.4907988    3134.0846    243.71852 
   13400    15.025186   -23.616936   -8.5917495    3304.3376    232.94569 
   13500      15.0621   -23.736304   -8.6742036    3265.3352    233.51799 
   13600    14.755106   -23.492544   -8.7374374    3339.5654    228.75846 
   13700    15.762898   -24.545924   -8.7830259    3008.6919    244.38294 
   13800    15.444965   -24.266435   -8.8214694    3086.9453    239.45381 
   13900    15.751496   -24.591766   -8.8402695    2961.4338    244.20616 
   14000    15.743972   -24.591359   -8.8473868    2952.2871    244.08952 
   14100    15.243087   -24.092486   -8.8493987    3080.6556    236.32395 
   14200    16.049668   -24.894316    -8.844648    2842.5174    248.82893 
   14300    15.074536   -23.908358   -8.8338226    3156.9868    233.71079 
   14400    15.411872   -24.217167   -8.8052949    3093.1783    238.94074 
   14500    14.961886   -23.721747    -8.759861    3257.5217     231.9643 
   14600    15.351538   -24.047146   -8.6956081     3180.142    238.00534 
   14700    15.575188    -24.18787   -8.6126812     3126.979    241.47275 
   14800    15.499552   -24.017102   -8.5175498    3172.7782     240.3001 
   14900    15.778508   -24.185986   -8.4074781    3104.0427    244.62495 
   15000    16.233471   -24.525156    -8.291685     2984.774    251.67856 
   15100    16.361214   -24.537723   -8.1765085     2987.499    253.65904 
   15200    15.785006   -23.854661    -8.069655    3216.2441    244.72569 
   15300    16.374558   -24.331712   -7.9571539    3117.2356    253.86592 
   15400    15.988973   -23.837406   -7.8484332    3306.8646    247.88793 
   15500    15.577252   -23.313557    -7.736305    3442.6507    241.50475 
   15600    16.035533   -23.649129   -7.6135962    3322.8282    248.60978 
   15700    15.947628   -23.442165   -7.4945376    3376.5965    247.24693 
   15800    16.144538   -23.521596   -7.3770582    3351.3418    250.29976 
   15900    16.211376   -23.468731   -7.2573545    3376.3564      251.336 
   16000    16.519581   -23.664375    -7.144794      3357.95     256.1143 
   16100    16.498887   -23.537631   -7.0387443     3390.038    255.79347 
   16200    17.646423    -24.59205   -6.9456275    3062.2759     273.5845 
   16300    16.860636   -23.735304   -6.8746679    3321.4867    261.40191 
   16400    16.818124    -23.62995   -6.8118256     3396.127    260.74283 
   16500    16.724861   -23.490376   -6.7655156    3423.0342     259.2969 
   16600    16.288462   -23.017096   -6.7286339    3547.1915    252.53111 
   16700    16.665553   -23.361206   -6.6956526    3420.6409    258.37742 
   16800    16.405205   -23.088424   -6.6832183    3520.1195    254.34107 
   16900    16.471899   -23.145981   -6.6740815    3535.1434    255.37506 
   17000    16.437388   -23.118004   -6.6806165     3545.138    254.84001 
   17100    17.202546   -23.890486   -6.6879398    3313.3313    266.70278 
   17200    16.351076   -23.067791   -6.7167153    3579.2978    253.50186 
   17300    16.955658   -23.713028   -6.7573707    3381.3175     262.8751 
   17400      15.8895    -22.70249   -6.8129898    3649.3949    246.34573 
   17500    17.102906   -23.970319   -6.8674128    3226.1805      265.158 
   17600    16.535818   -23.479258   -6.9434405    3360.6253    256.36604 
   17700    16.623818   -23.647578     -7.02376    3333.0804    257.73036 
   17800    16.437323   -23.548439   -7.1111161    3376.2835      254.839 
   17900    16.701083   -23.917414   -7.2163316    3294.7176    258.92825 
   18000    15.972316   -23.295841   -7.3235249    3477.3994    247.62969 
   18100    16.278968   -23.702865   -7.4238968    3312.6017    252.38392 
   18200    16.604995   -24.140775     -7.53578    3144.3398    257.43855 
   18300    16.506071    -24.15456   -7.6484889     3123.296    255.90485 
   18400    16.381286   -24.153903   -7.7726168    3114.7809    253.97023 
   18500    15.649731   -23.545609   -7.8958774    3304.5355    242.62843 
   18600    15.967969   -23.979661    -8.011692    3170.4471     247.5623 
   18700      16.1248    -24.24228   -8.1174808    3097.3976    249.99374 
   18800    15.404403   -23.619883   -8.2154804     3267.009    238.82494 
   18900    15.641591   -23.939951   -8.2983602    3175.6878    242.50224 
   19000    15.666551   -24.036441   -8.3698895    3149.5337    242.88921 
   19100    15.381298   -23.817697   -8.4363991     3224.937    238.46673 
   19200    15.704294   -24.186258   -8.4819642    3115.4508    243.47436 
   19300    15.888632   -24.410049   -8.5214173    3021.5019    246.33227 
   19400    15.327799   -23.878074   -8.5502747    3189.5098    237.63731 
   19500    15.491742   -24.060595   -8.5688522    3139.8846    240.17903 
   19600    15.528054   -24.102304   -8.5742502    3117.9166    240.74198 
   19700    15.579414   -24.152383   -8.5729696    3086.6785    241.53825 
   19800    15.374425   -23.935467    -8.561042     3133.491    238.36018 
   19900    15.764325   -24.299754   -8.5354281     3039.891    244.40507 
   20000    14.950626   -23.450902   -8.5002751    3279.1008    231.78974 
   20100    15.520304   -23.963167   -8.4428627    3135.2629    240.62184 
   20200    15.207194   -23.581087   -8.3738927    3256.7932    235.76749 
   20300    16.219296   -24.507418   -8.2881224    2985.4814    251.45879 
   20400    15.515587   -23.712967   -8.1973798    3244.7137    240.54871 
   20500    15.304723   -23.400866   -8.0961432    3327.3299    237.27954 
   20600    16.054643   -24.034287   -7.9796445    3126.5979    248.90606 
   20700    15.268052   -23.124011   -7.8559591    3463.5497      236.711 
   20800    16.179011   -23.895513   -7.7165019    3289.7459    250.83422 
   20900    15.575156   -23.151024   -7.5758679    3529.6335    241.47224 
   21000     16.31849   -23.752832   -7.4343414    3346.3335    252.99666 
   21100    15.745435   -23.044298   -7.2988627    3559.1714     244.1122 
   21200    16.384509   -23.549828   -7.1653193    3419.7656    254.02019 
   21300    16.526613   -23.567978   -7.0413651    3371.8486    256.22333 
   21400    16.493005   -23.425149   -6.9321441    3369.7861    255.70228 
   21500     17.09114    -23.93624   -6.8450998    3220.0826    264.97558 
   21600    16.338277    -23.11925   -6.7809734    3511.6372    253.30343 
   21700    16.229517    -22.96378   -6.7342631    3576.9086    251.61724 
   21800    16.455067   -23.147983   -6.6929154     3513.753    255.11411 
   21900    16.647408   -23.302315   -6.6549071     3485.871     258.0961 
   22000    16.735821   -23.366465   -6.6306446    3457.6758    259.46682 
   22100    16.839805   -23.463879   -6.6240743    3381.2111    261.07896 
   22200     17.24749    -23.88776   -6.6402698    3270.7414    267.39958 
   22300     16.87675   -23.543475   -6.6667243    3396.6246    261.65175 
   22400    17.001673   -23.713936   -6.7122624    3365.8399    263.58851 
   22500    16.361858   -23.131311   -6.7694526    3567.4682    253.66902 
   22600    16.752084   -23.581843   -6.8297591    3441.6326    259.71896 
   22700    16.288897   -23.191738   -6.9028417    3583.4482    252.53785 
   22800    15.962489   -22.944937    -6.982448    3646.3732    247.47734 
   22900    16.568785   -23.627225   -7.0584393    3405.6932    256.87716 
   23000     16.18867   -23.325604   -7.1369337    3488.8121    250.98398 
   23100    16.531839   -23.755342   -7.2235022    3315.4419    256.30436 
   23200    16.903741   -24.229857   -7.3261169    3113.8204     262.0702 
   23300    16.440654   -23.879783   -7.4391289    3208.4537    254.89065 
   23400    15.659875   -23.221858   -7.5619829    3419.6201    242.78571 
   23500    16.029757   -23.717306   -7.6875498    3303.1832    248.52023 
   23600    16.189585   -23.991749   -7.8021639    3229.8169    250.99816 
   23700    15.881522   -23.784799   -7.9032767    3301.8841    246.22205 
   23800    16.738495   -24.752215   -8.0137196    3018.1521    259.50828 
   23900    15.547267   -23.675963   -8.1286964    3348.6484    241.03986 
   24000    16.046475   -24.270958   -8.2244837    3189.1753    248.77942 
   24100    15.969855   -24.276548   -8.3066935    3162.8659    247.59153 
   24200    15.571948   -23.952795   -8.3808466    3244.7656    241.42252 
   24300    15.217048   -23.649016   -8.4319685    3333.5002    235.92025 
   24400       15.806   -24.266011   -8.4600116    3138.1011    245.05117 
   24500    15.493204   -23.973952   -8.4807481    3217.7997    240.20169 
   24600    15.501527   -23.988049   -8.4865223    3174.7773    240.33072 
   24700    15.731532   -24.212084   -8.4805522     3132.172    243.89665 
   24800    15.291859   -23.753529   -8.4616691    3275.6287    237.08011 
   24900    15.145547   -23.582498    -8.436951    3344.0085    234.81173 
   25000    16.242821   -24.641745   -8.3989239    2995.8845    251.82351 
   25100    16.132242   -24.496864   -8.3646219     2999.952    250.10913 
   25200     15.56192   -23.896404   -8.3344845    3218.0608    241.26703 
   25300    15.478888   -23.777877   -8.2989892     3282.595    239.97974 
   25400    15.743513   -24.004474    -8.260961    3233.7876     244.0824 
   25500     15.51578   -23.737061   -8.2212811     3309.675     240.5517 
   25600    16.476989   -24.651988    -8.174999    3034.5164    255.45398 
   25700    16.282444   -24.418565   -8.1361208     3063.294    252.43781 
   25800     15.93589    -24.03839   -8.1025005    3143.3292    247.06495 
   25900    15.835165   -23.905622   -8.0704572    3182.4207    245.50334 
   26000    16.592871   -24.628884   -8.0360135     2964.609    257.25057 
   26100    16.005829   -24.017684   -8.0118546    3149.6888    248.14927 
   26200    15.982489   -23.972254   -7.9897647    3183.2975    247.78741 
   26300    15.704417    -23.66802   -7.9636036    3277.9026    243.47626 
   26400    16.205402   -24.133905   -7.9285025    3140.2826    251.24338 
   26500    15.744137   -23.635171   -7.8910334    3281.5031    244.09207 
   26600    15.543899   -23.395642   -7.8517434    3379.5567    240.98764 
   26700    16.084469    -23.88911   -7.8046412    3243.5105    249.36847 
   26800    16.700797   -24.453916   -7.7531186    3038.0077    258.92383 
   26900    16.316562   -24.027279   -7.7107166    3142.2834    252.96677 
   27000    16.662652   -24.336681    -7.674029    3066.1888    258.33243 
   27100    16.113392   -23.758133   -7.6447419    3250.3137    249.81688 
   27200    16.276878    -23.89844   -7.6215623    3248.2099    252.35152 
   27300    16.445481   -24.046903   -7.6014216    3211.1554    254.96549 
   27400    15.782658   -23.365495   -7.5828368    3402.4623     244.6893 
   27500    16.307858   -23.872317   -7.5644596    3279.9272    252.83182 
   27600    16.167099   -23.712065   -7.5449665    3336.8098    250.64954 
   27700    15.627082   -23.140641   -7.5135586    3478.6471    242.27729 
   27800     16.19037   -23.666534   -7.4761634    3288.9073    251.01033 
   27900    16.468809   -23.905686   -7.4368771    3224.8513    255.32716 
   28000    16.160479     -23.5487   -7.3882204    3361.9543    250.54691 
   28100    16.582894   -23.916259   -7.3333647    3269.9191    257.09589 
   28200    16.841851   -24.115616   -7.2737646    3219.5331    261.11068 
   28300    16.584399   -23.800217   -7.2158179    3307.2533    257.11922 
   28400    16.111598   -23.271764   -7.1601661    3452.4986    249.78907 
   28500    16.410935    -23.50349   -7.0925548    3403.2585     254.4299 
   28600    16.551435   -23.580511    -7.029076    3403.6367    256.60817 
   28700    16.393557   -23.347721    -6.954164    3435.0063    254.16048 
   28800    17.147037   -24.026718   -6.8796816    3221.6908    265.84218 
   28900    16.989773   -23.798433   -6.8086606    3319.2432    263.40401 
   29000    16.770199   -23.512118   -6.7419193    3423.8045    259.99981 
   29100    16.674161    -23.35926   -6.6850988    3445.8192    258.51087 
   29200     17.24997   -23.892506   -6.6425361    3275.0202    267.43803 
   29300    16.770704   -23.379566   -6.6088612    3421.0035    260.00765 
   29400    16.653768   -23.233128   -6.5793595    3471.1958    258.19471 
   29500    16.681532   -23.247908   -6.5663758    3472.0656    258.62515 
   29600    16.677015   -23.242844   -6.5658283     3494.927    258.55512 
   29700    17.310832   -23.892684   -6.5818528    3294.5308    268.38161 
   29800    16.704064   -23.325787   -6.6217232    3438.7781    258.97447 
   29900     16.66897    -23.34591   -6.6769406    3434.8302    258.43038 
   30000    16.612015   -23.360498    -6.748483    3427.8585    257.54738 
   30100    16.541382   -23.371543   -6.8301611    3460.8337     256.4523 
   30200    16.270537   -23.200395   -6.9298574    3523.4774    252.25322 
   30300    16.597041   -23.640756   -7.0437154    3408.1105    257.31522 
   30400    16.689689   -23.858976   -7.1692873      3313.19    258.75161 
   30500     16.27386    -23.58415   -7.3102904    3328.7066    252.30472 
   30600    16.566195   -24.023131   -7.4569356    3187.9681      256.837 
   30700    15.974573   -23.586074   -7.6115013    3353.1738    247.66468 
   30800    16.133925   -23.883873   -7.7499484    3251.7455    250.13522 
   30900    16.138343   -24.021306   -7.8829629    3174.4798    250.20372 
   31000    15.732534   -23.743479   -8.0109443    3268.1707    243.91219 
   31100     15.79513   -23.914197   -8.1190669    3205.8088    244.88265 
   31200    15.440682   -23.651645   -8.2109622    3259.7679    239.38741 
   31300    16.163158    -24.45252   -8.2893614    3011.1093    250.58845 
   31400    15.568476   -23.925202   -8.3567268    3167.7375    241.36867 
   31500     15.49314   -23.902016   -8.4088758     3201.413     240.2007 
   31600    15.606859   -24.056602   -8.4497432    3138.5364    241.96376 
   31700    15.996418   -24.475192   -8.4787739     3007.742    248.00336 
   31800     15.15763   -23.660022   -8.5023916    3221.4974    234.99906 
   31900     16.06797   -24.575331   -8.5073602    2936.4631    249.11268 
   32000     15.80198   -24.314175   -8.5121953    3020.1306    244.98885 
   32100    16.007916   -24.521399   -8.5134839    2963.3973    248.18161 
   32200     15.45802   -23.967525   -8.5095049    3174.1392    239.65621 
   32300    16.133009   -24.624112   -8.4911037    2998.2462    250.12101 
   32400    15.616902   -24.084912   -8.4680096    3129.1067    242.11946 
   32500    16.045484   -24.484925   -8.4394406    3027.2084    248.76406 
   32600    15.685764   -24.090573   -8.4048083     3147.075    243.18708 
   32700    15.658672   -24.021492   -8.3628196     3164.532    242.76706 
   32800     15.67799   -23.978555   -8.3005651    3176.4939    243.06655 
   32900    15.670018   -23.892325   -8.2223069    3199.0388    242.94295 
   33000    15.985177   -24.120591    -8.135414    3144.7354    247.82907 
   33100    16.264888   -24.296434    -8.031546     3085.463    252.16564 
   33200    16.941608   -24.858715   -7.9171075     2912.712    262.65728 
   33300    16.465081   -24.274734   -7.8096532    3126.4075    255.26935 
   33400     16.16955   -23.873056   -7.7035064    3266.8194    250.68754 
   33500    16.809492   -24.396241    -7.586749     3110.864      260.609 
   33600    16.346923   -23.810993   -7.4640706    3293.7244    253.43747 
   33700    16.468382   -23.809583   -7.3412006    3325.9664    255.32054 
   33800    16.513949   -23.715233   -7.2012843    3335.7204    256.02699 
   33900    17.389219   -24.445347   -7.0561283    3095.5338     269.5969 
   34000    16.855069   -23.782442   -6.9273729    3310.1687    261.31561 
   34100    16.302034   -23.110242   -6.8082086    3504.6517    252.74153 
   34200     16.45556   -23.142398   -6.6868383    3500.9818    255.12174 
   34300     17.14556   -23.710865   -6.5653043    3352.3395    265.81929 
   34400     17.03003   -23.483427    -6.453397    3465.8008    264.02815 
   34500     16.57718   -22.928104   -6.3509246    3639.7988     257.0073 
   34600    17.251675   -23.502109   -6.2504341     3445.364    267.46446 
   34700    17.060603   -23.224876   -6.1642724    3524.9175    264.50215 
   34800    17.343051    -23.43539   -6.0923385    3452.4395    268.88113 
   34900    17.458869   -23.490676   -6.0318072    3420.3597    270.67673 
   35000      17.4841   -23.475685   -5.9915854    3447.1535     271.0679 
   35100    16.856793   -22.838435   -5.9816426    3670.0268    261.34233 
   35200     17.53304    -23.51653   -5.9834904    3440.6507    271.82665 
   35300    16.860422   -22.874488   -6.0140658    3606.9958     261.3986 
   35400     17.41912   -23.497614   -6.0784937    3431.5096    270.06047 
   35500    17.323715   -23.516342   -6.1926269    3411.6515    268.58134 
   35600     17.09811   -23.454935   -6.3568252    3409.6562    265.08364 
   35700    17.074109   -23.646036    -6.571927    3367.4259    264.71154 
   35800    16.676283   -23.500068   -6.8237858    3412.2551    258.54376 
   35900    16.308087    -23.39242   -7.0843332    3423.2064    252.83537 
   36000    16.588182   -23.920372   -7.3321893    3262.6255    257.17788 
   36100    16.478206   -24.033332    -7.555126    3193.7898    255.47285 
   36200    15.809856   -23.557655   -7.7477991    3302.6988    245.11096 
   36300    16.038267   -23.941558   -7.9032911    3183.8231    248.65217 
   36400     16.50318   -24.541495   -8.0383156    2983.0019    255.86003 
   36500    15.795887    -23.95724   -8.1613525    3178.9735    244.89439 
   36600    15.703318   -23.967074   -8.2637561    3229.1257    243.45922 
   36700    14.861965   -23.206934   -8.3449691    3472.8485    230.41515 
   36800    16.366092   -24.768975   -8.4028825    2970.5938    253.73467 
   36900    15.597207   -24.052262   -8.4550548    3141.3292    241.81412 
   37000    15.618158   -24.121967   -8.5038085    3110.5385    242.13894 
   37100    15.747612   -24.279651   -8.5320386    3026.0545    244.14595 
   37200    15.305879   -23.856014   -8.5501353    3164.4992    237.29746 
   37300    14.944605   -23.499512   -8.5549074    3304.3603    231.69638 
   37400     15.44419   -23.980071   -8.5358809    3175.0045    239.44178 
   37500    15.721688   -24.226184    -8.504496    3094.6145    243.74403 
   37600    15.925002   -24.389495   -8.4644932    3048.4937    246.89615 
   37700    15.761511   -24.177032   -8.4155216    3113.3008    244.36143 
   37800    15.703705    -24.05989   -8.3561855    3155.4681    243.46522 
   37900    15.127334   -23.422383   -8.2950488    3377.2552    234.52936 
   38000    15.279126   -23.490497   -8.2113715     3353.554    236.88269 
   38100    15.942945    -24.05229   -8.1093445     3176.504    247.17433 
   38200    15.921508   -23.920612    -7.999104     3209.544    246.84198 
   38300    16.002624   -23.889127   -7.8865034    3211.9059    248.09957 
   38400    16.081935   -23.855406   -7.7734705    3242.6247    249.32919 
   38500      15.8283   -23.493112   -7.6648112    3372.8327    245.39692 
   38600    16.500919   -24.053322   -7.5524033    3235.1044    255.82498 
   38700    16.320723   -23.768893   -7.4481699    3294.5922    253.03128 
   38800    16.067412    -23.41394   -7.3465277    3387.8211    249.10402 
   38900    15.909327   -23.164037   -7.2547105    3461.7678    246.65312 
   39000     16.82542   -23.984648   -7.1592277    3216.5736    260.85594 
   39100    16.470264     -23.5406   -7.0703362    3396.2125    255.34971 
   39200    16.011816   -23.005248   -6.9934322    3579.1157    248.24208 
   39300    16.522773    -23.44582   -6.9230468    3386.5838     256.1638 
   39400    17.328057   -24.188089   -6.8600318     3170.115    268.64867 
   39500    16.165898   -22.984858   -6.8189603    3556.9589    250.63092 
   39600    16.536925   -23.321874   -6.7849488    3489.7123    256.38321 
   39700    15.862109   -22.618807    -6.756698    3738.3555    245.92107 
   39800    16.022342   -22.750584   -6.7282422    3710.4922    248.40527 
   39900    16.586294   -23.284854   -6.6985594    3503.5295    257.14861 
   40000     16.92135   -23.591993   -6.6706431    3342.7933    262.34321 
   40100    16.673149   -23.333861   -6.6607119     3409.018    258.49518 
   40200    16.996388   -23.664799   -6.6684109    3348.7962    263.50658 
   40300    16.796325   -23.486626   -6.6903009    3439.6508    260.40486 
   40400    16.675852   -23.397787   -6.7219343     3476.955    258.53709 
   40500    16.629336   -23.394837   -6.7655018    3457.2047    257.81591 
   40600    16.955759   -23.780816   -6.8250576    3319.0268    262.87667 
   40700    16.384253   -23.296156   -6.9119029    3503.6267    254.01623 
   40800    16.645128   -23.656025   -7.0108962    3407.1302    258.06076 
   40900    16.672755   -23.809163   -7.1364079    3335.8299    258.48906 
   41000    16.442364   -23.729395    -7.287031    3357.2602    254.91716 
   41100     15.84045   -23.310318   -7.4698681    3485.1858    245.58528 
   41200    15.788342   -23.450559   -7.6622166    3405.7968    244.77742 
   41300    16.556679   -24.419021   -7.8623419    3095.7643    256.68947 
   41400    15.785982   -23.856272   -8.0702893    3236.6155    244.74083 
   41500    15.571865    -23.83609   -8.2642255     3209.435    241.42122 
   41600    16.051269   -24.487533   -8.4362637    2983.7183    248.85375 
   41700    15.683308   -24.263493   -8.5801848    3047.0858      243.149 
   41800     15.12781   -23.825748   -8.6979378    3198.9267    234.53674 
   41900    15.262149   -24.040044   -8.7778947    3163.6748    236.61948 
   42000    15.610596   -24.438957   -8.8283611    3058.0475     242.0217 
   42100    15.410462   -24.272546   -8.8620837    3090.2322    238.91889 
   42200    15.504525   -24.374956    -8.870431    3041.1357     240.3772 
   42300    15.980664   -24.846165   -8.8655012    2877.3852    247.75911 
   42400    15.511045   -24.374194   -8.8631489    3026.9474    240.47829 
   42500    15.431193   -24.280171   -8.8489785    3047.1685    239.24029 
   42600    15.793519   -24.616871   -8.8233524    2933.3703    244.85767 
   42700    15.727003   -24.525158   -8.7981553     2984.163    243.82643 
   42800    14.901283   -23.665533   -8.7642505    3262.4209    231.02473 
   42900    15.037571   -23.745026   -8.7074554    3257.1714     233.1377 
   43000    15.669098   -24.311498   -8.6424001    3069.4647     242.9287 
   43100    15.408961   -23.970463   -8.5615022    3156.8028    238.89561 
   43200    15.884925    -24.35812   -8.4731951    3016.8322    246.27481 
   43300    15.676662   -24.060432   -8.3837699    3093.6901    243.04597 
   43400    15.943663   -24.235437   -8.2917747    3079.2794    247.18545 
   43500    15.673296   -23.873628    -8.200332    3192.6694    242.99378 
   43600    15.205065   -23.306287   -8.1012227    3409.6331    235.73447 
   43700    15.528616   -23.530463   -8.0018475    3379.3243     240.7507 
   43800    15.890155     -23.7784   -7.8882446    3281.3509    246.35589 
   43900    15.946018   -23.724427    -7.778409    3305.2546    247.22197 
   44000    15.525134   -23.197589   -7.6724547    3473.3232    240.69672 
   44100    16.418132   -23.981124   -7.5629927    3239.7535    254.54147 
   44200    16.305539   -23.770474   -7.4649353    3299.6021    252.79586 
   44300    16.592866   -23.969131   -7.3762649    3239.3605     257.2505 
   44400    16.175855   -23.482418   -7.3065631    3387.9569    250.78529 
   44500    16.039997   -23.280106   -7.2401087    3443.1982    248.67899 
   44600    16.406607   -23.583344   -7.1767371    3328.4644     254.3628 
   44700    16.512389   -23.634337   -7.1219475     3339.423    256.00281 
   44800    16.428292   -23.508453    -7.080161    3358.2332    254.69899 
   44900     16.37729   -23.425604   -7.0483144    3405.1819    253.90827 
   45000    17.079039   -24.102105   -7.0230665    3194.2212    264.78797 
   45100    16.898243   -23.904541   -7.0062978    3219.6726    261.98496 
   45200    17.528087   -24.539393   -7.0113053    3051.1763    271.74987 
   45300     16.74503   -23.787175   -7.0421442     3276.995     259.6096 
   45400    16.768455    -23.85301   -7.0845551    3252.7408    259.97276 
   45500    16.276231    -23.41539   -7.1391592    3386.6929    252.34148 
   45600    15.128216    -22.32319   -7.1949743    3727.6933    234.54302 
   45700    15.989941   -23.226251   -7.2363102     3455.783    247.90294 
   45800    16.346188   -23.616582   -7.2703938    3317.5466    253.42608 
   45900    17.143023   -24.449236    -7.306213    3066.0024    265.77996 
   46000    15.976433   -23.327141   -7.3507079    3397.9325    247.69351 
   46100    16.442211   -23.845005   -7.4027937     3248.704     254.9148 
   46200    16.375416    -23.83063   -7.4552135    3239.7549    253.87922 
   46300    16.606415   -24.121985   -7.5155696    3165.0508    257.46056 
   46400    15.496156   -23.083447   -7.5872913    3526.0229    240.24745 
   46500    15.743154   -23.392197   -7.6490438    3458.7823    244.07683 
   46600    15.909445   -23.609751   -7.7003063     3427.563    246.65495 
   46700    15.576547   -23.326508   -7.7499613     3517.746    241.49381 
   46800    16.092456   -23.891735   -7.7992789    3326.8362     249.4923 
   46900    16.021831   -23.864538   -7.8427065    3284.8826    248.39736 
   47000     16.10005   -23.987701   -7.8876508    3226.7849    249.61004 
   47100      15.5637   -23.499254   -7.9355547    3352.2969    241.29463 
   47200    15.730862   -23.714738   -7.9838757    3291.9284    243.88627 
   47300    15.586037   -23.618012   -8.0319747    3326.1464    241.64094 
   47400    15.169317   -23.246499   -8.0771819    3419.3107    235.18025 
   47500    15.587137   -23.708962    -8.121825     3283.206      241.658 
   47600    14.990166    -23.15203   -8.1618635    3414.6749    232.40275 
   47700    16.379125   -24.577194   -8.1980686    2941.6004    253.93673 
   47800    16.143849   -24.391858   -8.2480092    3007.6882    250.28908 
   47900    15.278849   -23.585676   -8.3068272    3271.5117     236.8784 
   48000    15.245601   -23.611745   -8.3661449    3288.3344    236.36292 
   48100    15.205243   -23.627038   -8.4217956    3290.2536    235.73723 
   48200    15.938967   -24.405173   -8.4662066    3027.4177    247.11265 
   48300     15.50595   -24.014301   -8.5083516     3122.836    240.39929 
   48400    15.470199   -24.013069   -8.5428693    3134.6913    239.84503 
   48500    15.316556   -23.888082   -8.5715266    3161.4844    237.46299 
   48600    15.925536   -24.510711   -8.5851747     2976.274    246.90443 
   48700    15.371301   -23.962456   -8.5911553    3162.2912    238.31174 
   48800    15.447595   -24.033927   -8.5863311    3154.1406    239.49459 
   48900    16.080487   -24.644373   -8.5638864    2989.1618    249.30673 
   49000    15.077604   -23.614199   -8.5365954    3305.8236    233.75836 
   49100    15.362333   -23.855182   -8.4928489    3264.8926    238.17271 
   49200    15.421215   -23.847187   -8.4259721    3286.5883    239.08559 
   49300    15.197593   -23.537697   -8.3401043    3348.1289    235.61863 
   49400    16.111405   -24.348264   -8.2368586    3086.9513    249.78608 
   49500    15.429367   -23.554823   -8.1254559    3310.5343    239.21199 
   49600    16.229853   -24.230499   -8.0006463    3097.9726    251.62246 
   49700    15.834152   -23.706957   -7.8728053    3222.1616    245.48763 
   49800    16.295357   -24.045418   -7.7500603    3141.6257    252.63802 
   49900     15.73237   -23.355405   -7.6230354    3376.6847    243.90964 
   50000    16.092591   -23.588714   -7.4961232    3320.8335    249.49439 
Loop time of 32.3219 on 1 procs for 50000 steps with 500 atoms

Performance: 133.655 ns/day, 0.180 hours/ns, 1546.937 timesteps/s
99.9% CPU use with 1 MPI tasks x no OpenMP threads

MPI task timing breakdown:
Section |  min time  |  avg time  |  max time  |%varavg| %total
---------------------------------------------------------------
Pair    | 27.818     | 27.818     | 27.818     |   0.0 | 86.06
Neigh   | 2.244      | 2.244      | 2.244      |   0.0 |  6.94
Comm    | 0.79837    | 0.79837    | 0.79837    |   0.0 |  2.47
Output  | 0.2035     | 0.2035     | 0.2035     |   0.0 |  0.63
Modify  | 0.96658    | 0.96658    | 0.96658    |   0.0 |  2.99
Other   |            | 0.2919     |            |       |  0.90

Nlocal:    500 ave 500 max 500 min
Histogram: 1 0 0 0 0 0 0 0 0 0
Nghost:    2122 ave 2122 max 2122 min
Histogram: 1 0 0 0 0 0 0 0 0 0
Neighs:    25966 ave 25966 max 25966 min
Histogram: 1 0 0 0 0 0 0 0 0 0

Total # of neighbors = 25966
Ave neighs/atom = 51.932
Neighbor list builds = 1765
Dangerous builds = 0
Setting up Verlet run ...
  Unit style    : metal
  Current step  : 50000
  Time step     : 0.001
Per MPI rank memory allocation (min/avg/max) = 3.825 | 3.825 | 3.825 Mbytes
Step KinEng PotEng TotEng Press Temp 
   50000    16.092591   -23.588714   -7.4961232    3320.8335    249.49439 
   50100    18.470093   -23.293218   -4.8231255    3507.0149    286.35442 
   50200    21.153787    -22.15247  -0.99868307    4039.1762    327.96156 
   50300    23.331248   -20.716518    2.6147299    4663.4039    361.72022 
   50400    25.674645   -20.375444    5.2992008    4934.5728     398.0515 
   50500     25.30628   -20.097061    5.2092199     5003.873    392.34049 
   50600    23.536467    -20.04025    3.4962164    4948.0254    364.90187 
   50700    23.521937   -20.352759    3.1691776    4830.7441     364.6766 
   50800    23.962325   -19.989879    3.9724453    5010.7866    371.50423 
   50900    24.927537   -19.953961    4.9735764    5119.9222    386.46858 
   51000    24.760866   -19.507647    5.2532191    5265.6373    383.88455 
   51100     24.12315   -19.704538    4.4186119    5116.2982    373.99762 
   51200    23.146501   -20.017373    3.1291283    4937.9181    358.85596 
   51300    23.738497   -20.426961    3.3115359    4806.5845    368.03408 
   51400    24.220791   -19.301468    4.9193231    5206.2082    375.51141 
   51500    24.726786   -18.019192    6.7075936     5713.774     383.3562 
   51600    25.319519   -18.525236    6.7942828    5551.1979    392.54574 
   51700    25.213144   -19.781128    5.4320155    5123.9786    390.89653 
   51800    23.829971   -19.314845    4.5151263    5245.2972    369.45226 
   51900    24.051182   -19.728352    4.3228304    5066.4498    372.88185 
   52000    24.144518   -20.004127    4.1403911    4976.9871     374.3289 
   52100     22.86016   -19.407858    3.4523021    5169.1182    354.41662 
   52200    23.479837    -19.12782    4.3520171     5256.439     364.0239 
   52300    25.435486   -19.362334    6.0731517    5248.7114    394.34365 
   52400    24.725372   -19.281583     5.443789    5244.6054    383.33428 
   52500    24.103743   -20.157143    3.9465995     4905.669    373.69673 
   52600    23.509571   -19.829659    3.6799122    5001.2198    364.48488 
   52700    24.747632   -20.632658     4.114974    4764.3009    383.67938 
   52800    24.278579   -20.624113    3.6544658    4756.6806    376.40733 
   52900    22.964601    -20.31626    2.6483417    4830.0558    356.03585 
   53000    23.458155   -20.886433    2.5717224      4661.38    363.68775 
   53100    25.064349   -20.454619    4.6097297    4870.1981    388.58966 
   53200    25.641677   -20.069631    5.5720457    5048.0861    397.54037 
   53300    23.793607   -19.040091     4.753516    5280.5315    368.88848 
   53400    23.875532   -20.243974    3.6315573     4927.263    370.15862 
   53500    21.900082   -19.346783    2.5532991     5187.049    339.53188 
   53600    24.965006   -20.271755    4.6932519    4983.0619    387.04949 
   53700    24.950022   -19.537504    5.4125178    5191.6826    386.81717 
   53800    23.513634   -18.946961     4.566674    5308.0806    364.54788 
   53900    23.760208    -19.70159    4.0586177    5078.9415    368.37067 
   54000    25.181568   -20.446076    4.7354928      4881.99      390.407 
   54100     23.33912   -18.811093    4.5280271    5381.2194    361.84226 
   54200    23.806564   -19.179328     4.627236    5258.3479    369.08937 
   54300    25.147939   -19.475382    5.6725566    5163.0509    389.88562 
   54400    24.229115   -19.230348    4.9987676    5224.8953    375.64047 
   54500    22.868191    -19.96325    2.9049413    4902.5875    354.54113 
   54600    23.019497   -19.712217    3.3072808    5036.3453    356.88694 
   54700    24.123191    -19.82663    4.2965607    5099.0495    373.99825 
   54800    25.143988    -20.40698    4.7370084    4919.4028    389.82436 
   54900    24.562803   -20.750389    3.8124145    4749.0731    380.81386 
   55000    23.047843   -20.091643       2.9562    4894.1583     357.3264 
   55100    23.948734   -20.469118    3.4796163    4787.1039    371.29352 
   55200    24.301646   -20.398742     3.902904    4842.3049    376.76497 
   55300    24.941932   -20.684766    4.2571658    4775.9109    386.69174 
   55400     24.07554   -20.415472    3.6600672    4857.5135    373.25948 
   55500    22.897685   -20.494648     2.403037    4761.6408     354.9984 
   55600    22.514062   -20.110558    2.4035038    4864.4113    349.05083 
   55700    24.509444   -19.704398    4.8050452    5130.4777    379.98659 
   55800    25.172543   -20.214297    4.9582463    4995.8747    390.26707 
   55900    23.824426   -20.199024    3.6254012    4909.1375    369.36629 
   56000    23.464993   -20.254108    3.2108855     4873.825    363.79376 
   56100    25.005924   -20.289788    4.7161357    4971.2995    387.68386 
   56200    25.520758   -18.954517    6.5662404    5450.7713    395.66568 
   56300     24.82417   -19.242094    5.5820758    5328.0484      384.866 
   56400    24.027949   -19.221708    4.8062407    5343.2694    372.52165 
   56500    24.126677   -19.274859    4.8518177    5343.5303    374.05229 
   56600     24.18128    -19.02279    5.1584894    5388.9624    374.89884 
   56700    24.622074   -19.309761    5.3123126    5271.6227    381.73277 
   56800    23.972871   -20.342149    3.6307225    4846.4763    371.66774 
   56900    22.477025   -19.900672    2.5763537    4928.3744    348.47662 
   57000    24.228277   -20.254273    3.9740041    4930.0641    375.62748 
   57100     24.69664   -20.085755     4.610885    5026.0056    382.88882 
   57200    24.239103   -19.765674    4.4734292    5104.3591    375.79532 
   57300    24.482117   -20.286129    4.1959881    4978.8986    379.56292 
   57400    23.147962   -20.210336    2.9376264    4952.0491    358.87862 
   57500    22.746973   -20.988024    1.7589489     4648.725     352.6618 
   57600    23.938897   -20.435252    3.5036456    4834.1289    371.14102 
   57700    24.449794   -19.847223    4.6025709    5044.5499    379.06181 
   57800    24.325891   -19.365742    4.9601487    5263.9556    377.14084 
   57900    24.921496   -19.440027     5.481469     5254.176    386.37491 
   58000    24.786907   -20.507452    4.2794549    4812.2587     384.2883 
   58100    22.708695   -20.497431    2.2112637    4709.9148    352.06836 
   58200    23.903994   -20.841006     3.062988    4689.4266    370.59989 
   58300    23.759954   -19.367539    4.3924146      5205.83    368.36674 
   58400    25.011385   -19.729064    5.2823206    5104.3369    387.76853 
   58500    24.169841   -19.411597     4.758244     5176.892     374.7215 
   58600    23.805387   -19.590943     4.214444    5097.3818    369.07113 
   58700    23.069648   -18.677847    4.3918009    5421.5936    357.66445 
   58800    24.551128   -19.429714     5.121414    5308.4509    380.63285 
   58900    25.179624   -19.591662    5.5879621    5274.3246    390.37685 
   59000    23.857073    -18.73056    5.1265132    5483.2819    369.87245 
   59100    23.918441   -19.825231    4.0932099    5072.0728    370.82387 
   59200    22.402343    -19.69204    2.7103024    5024.3286    347.31877 
   59300    24.186045   -20.702798    3.4832475    4713.8427    374.97272 
   59400    25.692114   -20.204766    5.4873486    4918.8025    398.32234 
   59500    24.043275   -19.063987    4.9792873     5265.666    372.75926 
   59600    23.858294   -19.791026    4.0672683    5036.0607    369.89138 
   59700    23.615197   -20.335352    3.2798447    4894.3757    366.12247 
   59800    21.527328   -20.927392   0.59993661    4597.6897    333.75283 
   59900     22.45165   -20.944108    1.5075421    4580.9652    348.08321 
   60000    24.111009   -20.680558    3.4304507     4745.207    373.80938 
   60100    24.475399   -19.802723    4.6726761    5075.9888    379.45877 
   60200     25.10336   -20.030189    5.0731713    5046.3148    389.19448 
   60300    23.877473   -19.895733    3.9817403    5071.4081    370.18871 
   60400    23.261893   -20.162872    3.0990212    4908.0552    360.64496 
   60500    23.593818   -20.811048    2.7827699    4669.8356    365.79103 
   60600    23.542589   -19.800705    3.7418841    4987.8708    364.99678 
   60700    25.426317   -20.043083    5.3832345    5031.2968    394.20151 
   60800    25.524219   -20.868503    4.6557166    4815.4809    395.71935 
   60900    22.402619   -19.516897    2.8857222    5156.7256    347.32305 
   61000     23.81914   -19.901674    3.9174662     5041.467    369.28434 
   61100     24.76637   -20.454183    4.3121874    4838.0114     383.9699 
   61200    23.898659   -20.141293    3.7573655    4956.8241    370.51717 
   61300    24.257329   -20.341733    3.9155959    4916.0187    376.07788 
   61400    24.010068   -19.139377    4.8706916    5281.2106    372.24443 
   61500    25.797543   -19.894813    5.9027301    5105.5741    399.95688 
   61600    23.828961   -19.313686    4.5152742    5226.5037     369.4366 
   61700    22.946963   -19.447122    3.4998413    5168.9975    355.76239 
   61800    24.077182   -19.468802    4.6083807    5223.1996    373.28495 
   61900    25.973635   -19.752824    6.2208104    5207.7222    402.68694 
   62000    24.778753   -19.207274    5.5714785     5313.111    384.16187 
   62100    23.298125   -18.983886     4.314239     5304.191    361.20669 
   62200    24.223482   -20.194223    4.0292593    4967.4571    375.55313 
   62300    24.101037   -19.416114    4.6849223    5199.9166    373.65478 
   62400    25.878918   -19.302587    6.5763316    5283.0735    401.21848 
   62500     25.01021   -19.778965    5.2312453    5151.4739    387.75032 
   62600    24.229992   -20.319793    3.9101985    4976.5088    375.65406 
   62700    23.027561   -19.297288    3.7302731    5260.6569    357.01196 
   62800    25.025949   -19.998963    5.0269853    5059.5827    387.99432 
   62900    24.181493   -18.586947    5.5945462    5489.8923    374.90215 
   63000    25.323523   -19.436739    5.8867843    5270.1525    392.60782 
   63100    23.700564   -19.645508    4.0550565    5171.4827    367.44598 
   63200    22.794206   -19.480887    3.3133187    5160.4356    353.39409 
   63300    24.921799   -20.325796     4.596002    4961.2026    386.37961 
   63400    24.795721    -19.71093    5.0847914    5147.9991    384.42495 
   63500    23.891271    -19.99468     3.896591    4985.1731    370.40264 
   63600    23.240884   -20.729645    2.5112393    4662.5192    360.31924 
   63700    23.374426   -20.233796      3.14063    4846.7278    362.38963 
   63800     24.70803   -19.626924    5.0811065    5151.2639    383.06541 
   63900    23.908371   -18.272756    5.6356149    5598.4139    370.66775 
   64000    24.648475   -19.045759    5.6027161    5364.0999    382.14209 
   64100    24.440434    -19.68394    4.7564936    5123.7376    378.91668 
   64200    22.966958   -20.464432    2.5025267    4769.0498    356.07239 
   64300    22.225725   -19.923728    2.3019979    4940.8093    344.58055 
   64400    24.495518   -20.751036     3.744482     4746.049    379.77069 
   64500    24.319855   -19.949042    4.3708136    4986.9448    377.04727 
   64600     24.32715    -19.78593    4.5412201    5045.4058    377.16037 
   64700    23.905682   -19.129055    4.7766266     5307.791    370.62606 
   64800    26.034999   -20.163604    5.8713946      5065.09    403.63831 
   64900    24.504494   -19.525989    4.9785049    5194.4191    379.90985 
   65000    23.283488   -20.040638    3.2428501    4930.5019    360.97976 
   65100     23.66561   -20.404932    3.2606787     4806.205    366.90407 
   65200    24.989119   -20.259384    4.7297352    4965.9166    387.42333 
   65300    25.882583   -19.062949    6.8196338    5456.1336    401.27531 
   65400    26.072988   -18.117636    7.9553523     5802.907    404.22728 
   65500    24.086824   -18.261087    5.8257369    5581.7654    373.43443 
   65600    24.827827   -20.368569    4.4592581    4888.6162    384.92271 
   65700     23.33662   -19.803301    3.5333186    5016.7353     361.8035 
   65800    23.828603   -19.875071    3.9535326    5038.7807    369.43105 
   65900    25.255047   -19.450427    5.8046203    5249.6704    391.54619 
   66000    25.763779   -19.588625    6.1751542    5216.1696     399.4334 
   66100    22.748348   -19.375173    3.3731748    5171.2208    352.68312 
   66200    23.777812   -19.904303     3.873509    5047.4946     368.6436 
   66300    24.786476   -19.791464    4.9950124    5084.8174    384.28161 
   66400    25.494426   -20.561887    4.9325383    4825.3306    395.25743 
   66500    23.261576   -20.477079    2.7844974    4760.2409    360.64005 
   66600     23.44876   -20.709532    2.7392271    4705.4375    363.54208 
   66700    24.012446   -20.275192    3.7372544    4883.8703    372.28129 
   66800    23.705029   -19.438932    4.2660976    5140.2302     367.5152 
   66900    24.252349   -19.395224    4.8571255    5193.0819    376.00068 
   67000    24.784975   -19.689802    5.0951726    5122.7507    384.25834 
   67100    24.082743   -19.332565    4.7501779    5245.2855    373.37116 
   67200    24.471566   -19.733426    4.7381394    5125.3985    379.39934 
   67300    23.290424     -19.0463    4.2441243    5314.3151     361.0873 
   67400    25.479579   -20.749483    4.7300963    4847.0836    395.02726 
   67500    23.459426   -18.976882    4.4825447    5343.5587    363.70745 
   67600    24.161547   -19.938456    4.2230911    4997.1886    374.59291 
   67700    23.663352   -19.583919    4.0794333    5032.2082    366.86906 
   67800    24.935817   -20.659668    4.2761492    4747.2437    386.59695 
   67900    23.029094   -19.794072     3.235022    4971.2892    357.03572 
   68000    23.805833    -20.80189    3.0039438    4683.8835    369.07804 
   68100    24.242054   -20.119827    4.1222275     4954.313    375.84107 
   68200    24.954558   -19.132867    5.8216906     5333.691     386.8875 
   68300    24.627521   -18.966563    5.6609582    5426.3994    381.81722 
   68400      23.4794    -19.57278    3.9066202    5186.2044    364.01712 
   68500    22.759921   -20.096819    2.6631017    4909.5801    352.86255 
   68600    24.109257   -20.540374    3.5688831    4801.6986    373.78222 
   68700    23.979257   -19.941175    4.0380823    5038.2571    371.76674 
   68800    24.459297   -19.581959    4.8773374    5200.3796    379.20913 
   68900    24.777211   -19.371309    5.4059024     5255.354    384.13797 
   69000    24.269363   -19.635739    4.6336241    5138.0987    376.26446 
   69100    23.560962   -20.960744    2.6002185     4663.074    365.28163 
   69200    22.391691   -19.942904     2.448787     4964.719    347.15362 
   69300    23.085969   -18.952818    4.1331502    5358.7342    357.91749 
   69400    25.269787   -20.224028     5.045759    5031.8303    391.77471 
   69500    24.949417   -20.808184    4.1412329    4770.3428     386.8078 
   69600    23.248567   -20.453798    2.7947684     4760.184    360.43836 
   69700    24.291626   -21.346512    2.9451145    4487.8493    376.60962 
   69800    23.307258   -19.495365    3.8118931    5121.0668    361.34829 
   69900    26.294432   -20.059493    6.2349394    5099.1097    407.66048 
   70000    24.307836   -19.298285    5.0095514    5223.8069    376.86093 
   70100    23.624922   -19.739311    3.8856113    5013.3247    366.27325 
   70200    23.631199   -19.552848    4.0783507    5064.8585    366.37056 
   70300    25.310001   -19.600927    5.7090739    5154.1472    392.39817 
   70400    25.545925    -19.05147    6.4944543     5383.185    396.05586 
   70500    24.448284   -19.786857    4.6614275    5105.7818    379.03839 
   70600    23.343544     -20.4864    2.8571438    4766.3461    361.91085 
   70700    23.227916   -20.246812    2.9811038    4813.6049    360.11819 
   70800    24.571497   -19.984446    4.5870509    4979.4428    380.94864 
   70900    24.539984   -19.560416    4.9795676    5124.2151    380.46007 
   71000    24.000135   -19.612217    4.3879187    5090.6526    372.09044 
   71100     23.40247   -20.337007    3.0654636    4803.0064    362.82443 
   71200    21.897287   -20.718274    1.1790128    4583.0706    339.48854 
   71300     24.53742   -21.583519    2.9539005    4411.4383    380.42032 
   71400    24.079413    -20.20411    3.8753033    4883.1375    373.31953 
   71500    25.346449   -20.524869    4.8215801     4839.524    392.96325 
   71600    24.466916   -19.909182    4.5577331    5018.0731    379.32725 
   71700    21.896489   -19.472994    2.4234944    5063.5077    339.47617 
   71800    24.189958   -21.356678    2.8332806     4514.844    375.03339 
   71900    23.692884   -19.930362    3.7625228    4988.9084    367.32691 
   72000    24.812983    -20.60321    4.2097736    4827.2675    384.69257 
   72100    24.004131   -20.137555    3.8665759    4967.0827    372.15239 
   72200    23.211458   -19.337499    3.8739584    5179.2279    359.86303 
   72300    25.984891   -20.516215    5.4686762    4865.9903    402.86145 
   72400    24.863716   -19.935037    4.9286786    5052.4021    385.47911 
   72500    23.535667   -20.577595    2.9580715    4821.0316    364.88946 
   72600    22.955609   -19.825789    3.1298195    5026.3223    355.89643 
   72700    24.442729   -19.788506    4.6542228    5139.9647    378.95226 
   72800    24.481845    -19.61362    4.8682258    5195.3381    379.55872 
   72900       24.261   -20.055384    4.2056159    4967.9952     376.1348 
   73000    23.852482   -20.364275    3.4882065    4822.6986    369.80126 
   73100    24.116452   -20.570249    3.5462026    4805.0497    373.89377 
   73200    25.173287   -19.280684     5.892603     5278.952     390.2786 
   73300    25.263237   -19.072088    6.1911493    5417.5545    391.67316 
   73400    23.176835      -18.449    4.7278341    5553.8183    359.32624 
   73500     23.65479   -19.267962    4.3868285    5248.7106    366.73631 
   73600    24.077766   -18.836686    5.2410794    5404.8952    373.29399 
   73700    27.005339   -19.575994    7.4293454    5290.0571    418.68216 
   73800    24.939108   -19.120072    5.8190352    5334.7779    386.64796 
   73900     24.60189   -20.184992    4.4168977    4914.0718    381.41984 
   74000    23.255441   -20.145232    3.1102095    4839.4299    360.54493 
   74100    23.607173   -20.104214    3.5029595     4930.605    365.99807 
   74200    24.840425    -19.61954    5.2208853    5174.9905    385.11802 
   74300    25.206933   -19.759785    5.4471475    5128.9026    390.80024 
   74400    23.801198    -19.20044    4.6007583      5207.95    369.00618 
   74500     24.37627    -20.19397       4.1823    4909.2266     377.9219 
   74600    23.343566   -19.525109    3.8184565    5144.3891    361.91119 
   74700    25.872474   -20.293156    5.5793174    5035.5043    401.11857 
   74800    24.859595   -18.891859    5.9677356    5440.6372    385.41522 
   74900    23.596488   -18.635173    4.9613153    5461.7577    365.83242 
   75000    24.391551   -20.199103    4.1924476    4955.2458    378.15881 
   75100      21.8189    -19.79432    2.0245798     4963.374    338.27326 
   75200    23.253262   -19.780004    3.4732577    5006.2987    360.51115 
   75300    24.423675   -19.626293    4.7973817    5106.9009    378.65686 
   75400     24.06426   -18.932505    5.1317549     5370.021     373.0846 
   75500    24.385294   -18.996359    5.3889352    5406.7964    378.06181 
   75600    25.457622   -20.088349    5.3692731    5109.7383    394.68685 
   75700    23.604901   -20.109698    3.4952026    4991.1012    365.96284 
   75800    23.536741   -20.683881    2.8528604    4786.0216    364.90612 
   75900    23.083944   -18.932017    4.1519265    5384.9507     357.8861 
   76000    25.094078   -19.466368    5.6277103    5290.8449    389.05057 
   76100    24.679644    -19.79825    4.8813939    5119.3374    382.62532 
   76200    23.386845   -19.726687    3.6601574    5113.6578    362.58218 
   76300    23.300249   -19.844745    3.4555046     5061.106    361.23963 
   76400     25.04955   -19.501481    5.5480686    5226.9391    388.36022 
   76500    25.538952   -19.519071    6.0198814    5234.2887    395.94776 
   76600    23.619041   -18.818324    4.8007168    5403.7526    366.18207 
   76700    24.556014   -19.623871    4.9321432    5140.0948    380.70861 
   76800    24.463275   -19.574308    4.8889678    5148.1762    379.27081 
   76900    23.078729   -20.288819    2.7899107    4869.0561    357.80525 
   77000    22.724562   -20.465368    2.2591943    4733.4681    352.31436 
   77100    23.460698   -19.540845    3.9198527    5066.7827    363.72716 
   77200    25.428777   -20.394546    5.0342304    4908.1567    394.23963 
   77300    24.173015   -19.848435    4.3245797    5048.0969     374.7707 
   77400    23.486285   -19.769917    3.7163677    5049.6047    364.12386 
   77500    24.285216   -19.680034    4.6051818    5111.2767    376.51023 
   77600    26.323435   -19.801525    6.5219093    5155.9695    408.11013 
   77700    24.565206   -20.018764    4.5464415    4984.6246     380.8511 
   77800     23.10878   -19.638082    3.4706983    5041.7048    358.27115 
   77900    23.835835    -19.87794    3.9578951    5025.9779    369.54317 
   78000    25.104015   -20.022086    5.0819292    5059.0982    389.20464 
   78100    24.919938   -19.359851     5.560087     5260.192    386.35077 
   78200     23.35363   -18.984489    4.3691416     5373.692    362.06723 
   78300    23.519487   -19.970921    3.5485655     5051.421    364.63861 
   78400    24.249654   -20.368231    3.8814221    4887.6972    375.95889 
   78500    24.806939   -20.009322    4.7976169    5039.2393    384.59886 
   78600     25.22728   -19.266947    5.9603331    5319.9446     391.1157 
   78700     25.12059   -19.472498    5.6480917     5269.781    389.46161 
   78800    23.391231   -20.204311    3.1869205    4927.6262    362.65018 
   78900    23.476534   -20.343121     3.133413    4870.4354    363.97269 
   79000    22.932979   -18.478386    4.4545928    5485.9089    355.54558 
   79100    25.584108   -19.624166    5.9599418    5189.2917    396.64784 
   79200    24.257648   -19.048191    5.2094572     5341.544    376.08284 
   79300    24.491635   -20.295643    4.1959922    4955.5478    379.71049 
   79400    24.088537   -20.608378    3.4801595    4823.0734    373.46099 
   79500     24.17312   -20.617443    3.5556769    4811.0535    374.77233 
   79600    25.439013   -19.757238    5.6817748    5172.4309    394.39833 
   79700    25.245844   -18.815684    6.4301594    5485.9583     391.4035 
   79800    24.127765   -19.374648    4.7531168    5244.0325    374.06916 
   79900    23.486247   -19.810012    3.6762344    5055.8999    364.12327 
   80000    24.596793    -20.72596    3.8708327    4790.3801    381.34083 
   80100    23.831072   -19.389892    4.4411803    5187.0151    369.46934 
   80200    26.094275   -19.366101    6.7281736    5286.4621    404.55731 
   80300    25.667361   -20.120867    5.5464936    5015.7916    397.93857 
   80400    24.233837   -20.338315    3.8955216    4856.2434    375.71367 
   80500    23.853815   -20.179203    3.6746123    4922.6556    369.82194 
   80600     24.10227   -19.732223    4.3700467    5090.7658     373.6739 
   80700     25.84271   -20.547411    5.2952992    4903.3305    400.65713 
   80800    22.565361   -18.986654    3.5787066    5289.3696    349.84615 
   80900    23.269076   -19.944551    3.3245247    4957.1684    360.75632 
   81000    25.224374   -20.005933    5.2184411    5014.1406    391.07064 
   81100    25.663163   -20.168261    5.4949014    5009.4747    397.87348 
   81200    24.427532   -20.010574    4.4169581    5028.0496    378.71666 
   81300    24.422226   -20.422278    3.9999471    4906.5589    378.63439 
   81400    23.213689   -19.622014     3.591675    5108.4616    359.89762 
   81500    24.399283   -19.875953    4.5233302    5032.6231    378.27869 
   81600    25.559403   -20.035164    5.5242389    5024.3374    396.26482 
   81700    24.090267   -20.004583    4.0856837     4992.764    373.48781 
   81800     22.93794   -20.224712    2.7132279    4844.2652    355.62249 
   81900    23.989265   -20.328797    3.6604682    4900.1849    371.92191 
   82000    25.648666   -19.425363    6.2233025     5283.135    397.64872 
   82100    24.060193   -18.807018    5.2531743    5422.4474    373.02154 
   82200    23.364915   -18.879542    4.4853728    5377.3345    362.24218 
   82300    24.464613   -19.434416    5.0301963    5224.6428    379.29154 
   82400    25.265228   -19.969265    5.2959629    5041.8069    391.70402 
   82500    23.444125   -20.210789    3.2333361    4891.0012    363.47024 
   82600    22.108288    -19.27587    2.8324175    5188.9959    342.75983 
   82700    23.646875   -19.079916     4.566959    5370.3781    366.61359 
   82800    24.755591   -19.308791    5.4468007      5340.82    383.80278 
   82900    24.753743   -19.102695    5.6510479    5406.8008    383.77413 
   83000    24.444768   -19.773039    4.6717292    5152.2767    378.98387 
   83100    23.260041   -19.864867    3.3951738    5062.1047    360.61624 
   83200    23.807489   -19.884853    3.9226362    5024.8609    369.10372 
   83300    25.579954   -19.491943    6.0880116    5196.3551    396.58344 
   83400     25.75445   -19.606117    6.1483335     5179.369    399.28877 
   83500    23.747017   -20.148131    3.5988859    4917.0187    368.16617 
   83600    23.593096   -19.929537    3.6635585    4944.0326    365.77982 
   83700    24.076559   -19.450161    4.6263983    5120.6257    373.27528 
   83800    25.144182   -19.815068    5.3291139    5101.1767    389.82737 
   83900     23.38151   -19.028597    4.3529126    5313.3205    362.49947 
   84000    23.070392   -20.240772    2.8296204     4923.161    357.67599 
   84100    23.940696   -20.722577     3.218119    4789.3023    371.16891 
   84200    24.883593   -19.863232    5.0203613    5091.2376    385.78728 
   84300    24.893642   -19.959487    4.9341555    5073.4943    385.94308 
   84400    24.208999   -19.907148    4.3018508    5036.3762    375.32859 
   84500    23.810949   -20.043176    3.7677734    4965.8151    369.15735 
   84600    23.784026   -20.415375    3.3686513    4839.7571    368.73994 
   84700    23.500169   -20.017848    3.4823209    4945.9933    364.33911 
   84800    25.571982   -19.932107    5.6398748     5095.344    396.45984 
   84900    25.523401   -19.261396    6.2620048     5328.907    395.70665 
   85000    23.810791   -19.064173    4.7466178    5301.7492     369.1549 
   85100    23.635154   -19.987561    3.6475929    4954.1708    366.43188 
   85200    24.611189   -21.112727    3.4984622    4623.4132    381.56402 
   85300    23.083485   -19.385779    3.6977067    5170.0633    357.87899 
   85400    24.339243   -19.334763    5.0044802    5224.4364    377.34785 
   85500    24.938647   -19.819269    5.1193784    5089.6632    386.64082 
   85600    23.888589    -19.53147    4.3571193    5093.8587    370.36106 
   85700    23.547372   -19.835825    3.7115472     4998.105    365.07094 
   85800    24.244687   -19.616595    4.6280923    5136.3674    375.88189 
   85900    26.086162   -19.926534    6.1596285    5134.1711    404.43153 
   86000    24.230147   -19.513596    4.7165505    5182.2724    375.65646 
   86100    23.692929    -19.81243    3.8804992    5004.9425     367.3276 
   86200     24.74285   -21.077756    3.6650946    4580.4679    383.60525 
   86300    22.766126   -19.386263    3.3798636    5098.4762    352.95875 
   86400    24.008942   -19.007388    5.0015538    5364.1728    372.22698 
   86500    25.155102   -19.595049    5.5600531    5224.0385    389.99666 
   86600    24.574748   -20.120547    4.4542009    4977.5242    380.99904 
   86700    23.284462   -19.949954    3.3345083    4997.9223    360.99486 
   86800    24.090614   -19.802004    4.2886097    5092.6744    373.49318 
   86900    25.147408   -19.485233     5.662175    5187.4918    389.87739 
   87000    25.189316   -20.148813    5.0405029    4960.8133    390.52711 
   87100    24.157248   -20.062039    4.0952084    4965.3002    374.52625 
   87200    23.036451   -19.149085    3.8873664    5271.7703    357.14979 
   87300    25.103535   -20.056183    5.0473515    5049.6398    389.19719 
   87400    24.791078   -19.695355    5.0957229    5150.4328    384.35296 
   87500    23.114021   -20.378081    2.7359401    4855.7384     358.3524 
   87600     22.64276   -20.087318    2.5554414     4907.594    351.04611 
   87700    24.120287   -20.160688    3.9595992    4947.5652    373.95323 
   87800    25.119284   -20.754352    4.3649322    4781.5807    389.44136 
   87900    23.614278    -19.96202    3.6522576    5000.1259    366.10822 
   88000    23.724234   -19.927658    3.7965756    5000.5012    367.81295 
   88100    25.869569   -19.932883    5.9366858    5091.2196    401.07354 
   88200    24.802626   -19.304702    5.4979238    5297.3474    384.53199 
   88300     23.82756   -19.524153    4.3034073    5154.0303    369.41489 
   88400     23.46868    -19.27731      4.19137    5192.7281    363.85092 
   88500    23.411894   -18.609598     4.802295    5463.3209    362.97052 
   88600    24.852481   -19.640463    5.2120183    5170.3626    385.30494 
   88700    24.595949   -20.103273    4.4926763    4986.0002    381.32775 
   88800    23.174591   -19.764956    3.4096353    5087.6756    359.29146 
   88900    24.282475   -20.358701    3.9237742    4963.5533    376.46774 
   89000    26.293578   -19.811457    6.4821215    5221.5143    407.64724 
   89100    24.923903    -18.96108    5.9628233    5411.4807    386.41223 
   89200    23.682669   -18.643053    5.0396157      5414.86    367.16853 
   89300    24.519952   -19.721054    4.7988978     5127.946     380.1495 
   89400    23.920426   -19.968731    3.9516952    5046.4535    370.85465 
   89500    22.272392    -20.28545    1.9869419    4826.4901    345.30405 
   89600    22.132696   -20.678338    1.4543575    4656.9972    343.13825 
   89700    25.404843   -21.553168    3.8516759    4532.5532    393.86858 
   89800    24.711279   -20.930803    3.7804755    4733.7805    383.11577 
   89900    24.004023   -20.526748    3.4772743    4800.7792     372.1507 
   90000    23.972416   -20.234474    3.7379426    4922.2098    371.66069 
   90100     24.23377   -18.989159    5.2446112    5391.1487    375.71264 
   90200     25.82837   -19.371317    6.4570531     5335.054     400.4348 
   90300    24.428601   -19.772071    4.6565299    5130.8214    378.73323 
   90400    23.963253   -20.001073    3.9621797    5013.1248    371.51863 
   90500    24.322141   -19.936042    4.3860992    5018.4751    377.08271 
   90600    24.763275   -19.209583    5.5536915    5302.1184     383.9219 
   90700    26.168234   -19.182912    6.9853215    5430.5758    405.70394 
   90800    23.830041   -18.277644    5.5523975    5593.0916    369.45335 
   90900    23.218483   -19.546803      3.67168    5149.1908    359.97194 
   91000    24.416657   -20.144384    4.2722736    4993.3137    378.54806 
   91100    24.652597   -19.461112    5.1914842    5228.1461    382.20599 
   91200    24.636772   -19.323599    5.3131724    5295.7822    381.96064 
   91300    23.480662   -20.072236    3.4084265    4984.9561    364.03669 
   91400    23.274497    -20.67967    2.5948265     4718.249    360.84036 
   91500    23.729072   -19.932602    3.7964696    5004.9132    367.88796 
   91600    25.143099   -19.966443    5.1766561     5056.359    389.81058 
   91700    24.143781   -19.160356    4.9834257    5351.4995    374.31748 
   91800    24.150311   -18.936218    5.2140936    5430.3702    374.41871 
   91900    25.396742   -19.816987    5.5797549    5143.7124    393.74297 
   92000    24.205366   -19.492718     4.712648    5157.0101    375.27227 
   92100    23.869559    -19.71707    4.1524891    5061.5711    370.06602 
   92200    24.723774   -20.586184    4.1375901    4803.7813    383.30949 
   92300    23.589049   -19.771874    3.8171747     5059.882    365.71708 
   92400    24.808528    -20.77816    4.0303682    4790.2604     384.6235 
   92500    23.028246   -19.221741    3.8065048    5241.5566    357.02257 
   92600    24.707121   -19.287758    5.4193624    5294.9938    383.05131 
   92700    24.746049   -18.080453    6.6655959    5713.6118    383.65484 
   92800    24.768913   -18.706036    6.0628771    5547.5365    384.00932 
   92900    23.752187   -19.399688    4.3524991    5262.6621    368.24632 
   93000    24.018018   -19.597395    4.4206228     5186.774    372.36769 
   93100    23.948349   -19.031155    4.9171945    5416.1196    371.28756 
   93200    24.833618   -18.812187     6.021431    5502.5221    385.01248 
   93300    25.844581   -19.558262    6.2863186    5213.7342    400.68613 
   93400    24.348656   -21.078353    3.2703029    4615.0929    377.49379 
   93500    22.604647   -19.564426    3.0402204    5052.4965    350.45523 
   93600     25.69532   -21.007421    4.6878996    4722.1189    398.37204 
   93700     24.11326   -19.740278    4.3729822     5089.264    373.84428 
   93800    24.158419   -20.846348    3.3120708    4688.3788    374.54441 
   93900    22.811979   -20.712954    2.0990252    4699.1031    353.66965 
   94000    24.384167   -20.635918    3.7482487    4791.5887    378.04433 
   94100    25.509509   -20.283802    5.2257072    4954.2701    395.49129 
   94200    23.946662   -19.971459    3.9752033    4982.0023     371.2614 
   94300    23.545874   -20.346205    3.1996691    4828.8434    365.04772 
   94400    23.687696   -20.114576    3.5731194    4961.4598    367.24647 
   94500    25.373142   -19.855113    5.5180289    5112.2951    393.37709 
   94600    25.463074     -19.3688    6.0942732     5237.519    394.77136 
   94700    25.099964   -20.233477    4.8664868    4956.3249    389.14182 
   94800    23.481967   -19.299643    4.1823236    5249.2351    364.05691 
   94900    24.272204   -19.906049    4.3661552    5066.3536     376.3085 
   95000    24.357517      -19.947     4.410517    5004.2907    377.63117 
   95100    24.069193   -20.464678     3.604515    4833.6273    373.16109 
   95200    22.771783   -19.610568    3.1612143    5070.1983    353.04645 
   95300    25.271601   -20.204232    5.0673694    4976.6406    391.80283 
   95400    24.990043   -19.596085    5.3939585    5191.4422    387.43765 
   95500    23.775528   -19.892999     3.882529    5020.6281     368.6082 
   95600    22.503475   -20.515283    1.9881916    4705.3925    348.88668 
   95700    23.884042   -21.127429    2.7566135    4571.7307    370.29057 
   95800    24.035786   -19.807495    4.2282918    5042.6692    372.64316 
   95900    25.274701   -20.287699    4.9870013    4920.8874    391.85089 
   96000    24.405403   -20.514942    3.8904611    4811.3717    378.37358 
   96100    22.971985   -19.921735    3.0502503    4991.9632    356.15032 
   96200    23.833977   -19.852465    3.9815125    5054.6076    369.51437 
   96300    23.611456   -19.156931    4.4545248    5288.2776    366.06447 
   96400    24.174488   -19.560697    4.6137907    5169.4123    374.79354 
   96500    24.601766   -20.273375    4.3283905    4925.6083    381.41792 
   96600    22.941786   -19.874648    3.0671379    4970.7924    355.68213 
   96700    23.199024   -20.393331    2.8056924    4814.7467    359.67026 
   96800    24.633944   -19.412775    5.2211685    5192.1022     381.9168 
   96900    25.338488   -19.538716    5.7997723    5185.7119    392.83983 
   97000    24.422812   -19.933225    4.4895871    5029.1393    378.64348 
   97100    23.802803   -20.820611    2.9821919    4692.9639    369.03106 
   97200    22.749354    -19.92031    2.8290432    4953.7372    352.69871 
   97300    23.686907   -19.460542    4.2263655    5156.9202    367.23425 
   97400    24.007963   -19.404951    4.6030118    5189.8843    372.21179 
   97500    23.939449    -19.02551    4.9139386     5322.947    371.14957 
   97600    25.789181   -20.211402    5.5777786    4987.2674    399.82722 
   97700    23.047148   -19.447924    3.5992242    5130.6339    357.31563 
   97800    22.972202   -19.925104    3.0470981    4971.3325    356.15369 
   97900     23.69877   -19.471998    4.2267723    5181.8836    367.41817 
   98000    24.282569   -18.959371    5.3231975    5364.5308    376.46919 
   98100    24.433709   -19.131799    5.3019094    5329.8369    378.81242 
   98200     23.97512     -19.3986    4.5765203    5241.3748    371.70261 
   98300    24.027299   -19.484826    4.5424727    5200.9725    372.51157 
   98400    25.033611   -19.538218    5.4953924    5209.6884    388.11311 
   98500    26.468811   -19.933826    6.5349858    5104.8708      410.364 
   98600    23.714541   -19.001106    4.7134349    5299.4744    367.66266 
   98700    23.537586   -19.773516    3.7640698    5077.9797    364.91922 
   98800     24.40716   -20.542123    3.8650371    4845.6206    378.40081 
   98900    23.987026   -19.627522    4.3595037    5132.4938    371.88719 
   99000    24.751385   -18.356829    6.3945564    5626.7763    383.73758 
   99100      25.1609   -18.459058    6.7018422    5617.9751    390.08656 
   99200    24.626115   -19.256152    5.3699634    5293.3299    381.79543 
   99300    24.083758   -20.048852    4.0349062    4977.3224    373.38689 
   99400    24.535188    -21.00698    3.5282076    4632.2573    380.38572 
   99500    22.814789   -19.089441    3.7253486    5222.0629    353.71321 
   99600    24.796342   -19.302221    5.4941218    5282.7226    384.43457 
   99700    24.466037   -18.777672    5.6883646    5430.6467    379.31363 
   99800    24.613462   -19.744436     4.869026    5148.5892    381.59925 
   99900    22.492057   -19.273734     3.218323    5238.7617    348.70967 
  100000    24.033409   -20.356952    3.6764572    4969.0615     372.6063 
Loop time of 32.9429 on 1 procs for 50000 steps with 500 atoms

Performance: 131.136 ns/day, 0.183 hours/ns, 1517.776 timesteps/s
99.8% CPU use with 1 MPI tasks x no OpenMP threads

MPI task timing breakdown:
Section |  min time  |  avg time  |  max time  |%varavg| %total
---------------------------------------------------------------
Pair    | 27.851     | 27.851     | 27.851     |   0.0 | 84.54
Neigh   | 2.7739     | 2.7739     | 2.7739     |   0.0 |  8.42
Comm    | 0.82563    | 0.82563    | 0.82563    |   0.0 |  2.51
Output  | 0.23035    | 0.23035    | 0.23035    |   0.0 |  0.70
Modify  | 0.96497    | 0.96497    | 0.96497    |   0.0 |  2.93
Other   |            | 0.2972     |            |       |  0.90

Nlocal:    500 ave 500 max 500 min
Histogram: 1 0 0 0 0 0 0 0 0 0
Nghost:    2139 ave 2139 max 2139 min
Histogram: 1 0 0 0 0 0 0 0 0 0
Neighs:    26062 ave 26062 max 26062 min
Histogram: 1 0 0 0 0 0 0 0 0 0

Total # of neighbors = 26062
Ave neighs/atom = 52.124
Neighbor list builds = 2175
Dangerous builds = 0
Total wall time: 0:01:05
