LAMMPS (11 Aug 2017)
LAMMPS (11 Aug 2017)
LAMMPS (11 Aug 2017)
Total wall time: 0:00:00
Total wall time: 0:00:00
Total wall time: 0:00:00
LAMMPS (11 Aug 2017)
Lattice spacing in x,y,z = 5.7 5.7 5.7
Created orthogonal box = (0 0 0) to (5.7 5.7 5.7)
  1 by 1 by 1 MPI processor grid
Created 4 atoms
Replicating atoms ...
  orthogonal box = (0 0 0) to (28.5 28.5 28.5)
  1 by 1 by 1 MPI processor grid
  500 atoms
Neighbor list info ...
  update every 1 steps, delay 0 steps, check yes
  max neighbors/atom: 2000, page size: 100000
  master list distance cutoff = 10.5
  ghost atom cutoff = 10.5
  binsize = 5.25, bins = 6 6 6
  1 neighbor lists, perpetual/occasional/extra = 1 0 0
  (1) pair lj/cut, perpetual
      attributes: half, newton on
      pair build: half/bin/atomonly/newton
      stencil: half/bin/3d/newton
      bin: standard
Setting up Verlet run ...
  Unit style    : metal
  Current step  : 0
  Time step     : 0.001
Per MPI rank memory allocation (min/avg/max) = 3.823 | 3.823 | 3.823 Mbytes
Step KinEng PotEng TotEng Press Temp 
       0    16.125203   -36.291337   -20.166134   -2011.8511          250 
     100    12.703445   -32.831835    -20.12839   -599.67144    196.95016 
     200    7.6840327    -27.81524   -20.131207    1290.4368    119.13079 
     300    8.6437242   -28.661322   -20.017597    1074.2529    134.00954 
     400    8.5306492   -28.365104   -19.834455    1162.0892    132.25646 
     500    8.9094397    -28.52582    -19.61638    1114.6715    138.12911 
     600    8.9847411   -28.393764   -19.409023    1151.2555    139.29656 
     700    9.3658162    -28.59002   -19.224203    1099.0405    145.20462 
     800    9.3844954   -28.417982   -19.033487    1176.9385    145.49422 
     900    9.2342128   -28.064051   -18.829839    1313.0488    143.16429 
    1000      9.50095   -28.102409   -18.601459    1301.4263     147.2997 
    1100    10.075649   -28.422746   -18.347097    1182.2158    156.20964 
    1200    10.461209   -28.536042   -18.074833    1164.4506    162.18724 
    1300    9.9638633   -27.761822   -17.797958    1441.0291    154.47656 
    1400    9.6309545   -27.165722   -17.534767    1663.1932    149.31524 
    1500    10.062517   -27.316756   -17.254239    1632.3994    156.00606 
    1600    10.335088   -27.304283   -16.969194    1637.5452    160.23191 
    1700    10.878219   -27.540337   -16.662118    1578.2249    168.65243 
    1800    10.777063   -27.130367   -16.353304    1727.5569    167.08415 
    1900    10.935562   -26.982721   -16.047159    1806.6894    169.54146 
    2000    11.071206   -26.805408   -15.734203    1899.8279    171.64444 
    2100    11.070245   -26.492118   -15.421872    2025.0668    171.62955 
    2200    11.327035    -26.42531   -15.098275    2094.8247    175.61074 
    2300     11.57714    -26.35099    -14.77385    2125.9679    179.48828 
    2400    11.937872   -26.373698   -14.435827    2135.6624    185.08095 
    2500    11.637193   -25.738955   -14.101761    2356.4947    180.41933 
    2600    12.462761    -26.22505   -13.762289    2226.0869    193.21866 
    2700    12.546838   -25.963043   -13.416206    2300.1734    194.52216 
    2800    12.691509   -25.765672   -13.074164    2376.5487     196.7651 
    2900    13.071481   -25.799601    -12.72812    2397.9293    202.65607 
    3000    13.136969   -25.521965   -12.384996    2510.6019    203.67137 
    3100     13.48557   -25.520971   -12.035401    2497.7803    209.07597 
    3200    13.876751   -25.562182   -11.685431    2496.1464    215.14072 
    3300    14.334297   -25.664508   -11.330211    2473.0156    222.23437 
    3400    14.265539   -25.254314   -10.988776     2633.808    221.16836 
    3500    14.194792   -24.850122    -10.65533    2793.9076    220.07152 
    3600    14.350014    -24.68196   -10.331945    2884.3424    222.47804 
    3700     14.62139   -24.627062   -10.005672    2923.3696    226.68536 
    3800    14.755005   -24.436171   -9.6811666    2976.6552    228.75688 
    3900    15.642317   -24.994845   -9.3525278    2832.1594    242.51348 
    4000    15.394706   -24.433497   -9.0387913    3020.6882    238.67461 
    4100    15.694176   -24.433184   -8.7390074    3056.9098     243.3175 
    4200    15.591981   -24.039737   -8.4477559    3205.8508    241.73309 
    4300    16.035205   -24.202586   -8.1673814    3208.2482     248.6047 
    4400    16.139534   -24.036552   -7.8970186    3260.8254    250.22218 
    4500    15.941489   -23.576172   -7.6346825    3370.9476    247.15176 
    4600    16.342686   -23.730968   -7.3882829    3347.0793    253.37178 
    4700    16.341227   -23.495437   -7.1542102    3423.4441    253.34917 
    4800    16.385432   -23.318934    -6.933502    3459.0214    254.03451 
    4900    17.051987   -23.772137   -6.7201497    3321.3114    264.36856 
    5000    16.958936   -23.489145   -6.5302085    3391.9398    262.92593 
    5100    16.643131   -23.000454   -6.3573235     3551.608    258.02978 
    5200    17.820698   -24.026504   -6.2058055    3266.2396    276.28642 
    5300    17.455471   -23.541972    -6.086501     3380.007    270.62406 
    5400    17.057129   -23.047977   -5.9908482    3520.2006    264.44828 
    5500     16.91104   -22.835941   -5.9249015    3587.1049    262.18336 
    5600    17.330673   -23.205748   -5.8750757    3489.6395    268.68922 
    5700    17.381913   -23.238258   -5.8563453    3487.9464    269.48363 
    5800     17.14986   -23.014966   -5.8651064    3540.1605    265.88595 
    5900    17.790031   -23.683653   -5.8936222    3324.6281    275.81096 
    6000    17.692592    -23.64651   -5.9539183    3358.6315    274.30029 
    6100    17.274967   -23.323601   -6.0486337    3475.4721    267.82558 
    6200    16.939899   -23.109088   -6.1691886    3520.0803    262.63079 
    6300    17.366794   -23.669083   -6.3022886    3351.7827    269.24923 
    6400    16.713862   -23.171989   -6.4581275    3492.1961    259.12638 
    6500    17.265255   -23.891374   -6.6261189    3255.5694    267.67501 
    6600    16.726916   -23.536521   -6.8096049    3363.2532    259.32876 
    6700    16.458487    -23.46005   -7.0015636    3402.4856    255.16712 
    6800    16.010829    -23.20266   -7.1918314     3479.687    248.22678 
    6900    15.835419   -23.199213   -7.3637949    3426.0409    245.50727 
    7000     16.45172   -23.990735   -7.5390151    3148.7427    255.06222 
    7100    15.692219   -23.408315   -7.7160956    3319.1481    243.28716 
    7200    15.614059   -23.487899   -7.8738401    3315.8429    242.07538 
    7300    15.918074   -23.931878   -8.0138039    3165.6671    246.78874 
    7400    16.078042   -24.230207    -8.152165     3072.435    249.26884 
    7500      16.1022   -24.392789   -8.2905891    3032.3257    249.64337 
    7600    14.999898   -23.421479   -8.4215809    3326.4961    232.55363 
    7700    16.454896   -24.985862   -8.5309664    2862.6965    255.11145 
    7800    15.482574   -24.124181    -8.641607    3125.6979    240.03688 
    7900    15.716206   -24.455982   -8.7397759    3005.1503    243.65904 
    8000    15.735596   -24.567028   -8.8314318    2965.5128    243.95965 
    8100    16.090973   -25.003816   -8.9128432    2822.9601    249.46931 
    8200    15.028441   -24.014854    -8.986413    3102.1867    232.99616 
    8300    15.651287   -24.695494   -9.0442076    2894.5274    242.65255 
    8400     15.20799   -24.306255   -9.0982651    3010.7858    235.77982 
    8500    15.373297   -24.501626   -9.1283286    2980.9177    238.34269 
    8600    14.824169   -23.963795   -9.1396261    3165.1994    229.82919 
    8700    15.428301   -24.565345   -9.1370431    2986.4638    239.19546 
    8800    15.503182   -24.616535    -9.113353     2968.586    240.35639 
    8900    14.774273   -23.846541    -9.072268    3184.6533    229.05561 
    9000    15.048072   -24.059638   -9.0115662    3134.2495     233.3005 
    9100    14.938273   -23.868132   -8.9298599    3203.4945    231.59821 
    9200    15.523551   -24.350199   -8.8266475    3037.1526    240.67219 
    9300    16.077551   -24.787022   -8.7094714    2895.8399    249.26121 
    9400     15.78221   -24.370849   -8.5886389     3030.749    244.68234 
    9500    15.316344   -23.780323   -8.4639784    3208.0603    237.45971 
    9600    16.728823   -25.059577   -8.3307539    2826.1308    259.35834 
    9700    16.740535   -24.942488   -8.2019522     2845.238    259.53992 
    9800    16.032603   -24.118112    -8.085509    3113.1374    248.56435 
    9900    16.844827   -24.815765   -7.9709383    2935.6151    261.15682 
   10000    16.063262   -23.927972   -7.8647099    3227.0947    249.03969 
   10100    15.808411   -23.572023   -7.7636128    3368.0797    245.08855 
   10200    15.667982   -23.325807   -7.6578248    3463.0404    242.91139 
   10300    15.588835   -23.137584   -7.5487492    3497.1279    241.68432 
   10400    16.276289   -23.705994    -7.429705    3318.2544    252.34239 
   10500    15.849624   -23.161044   -7.3114205    3483.7516     245.7275 
   10600    16.925297   -24.115443   -7.1901457    3184.1653     262.4044 
   10700    16.317331   -23.404919   -7.0875884    3375.9058    252.97869 
   10800    16.838159   -23.830201   -6.9920428    3251.0407    261.05343 
   10900      16.6757   -23.580756   -6.9050558    3336.8093    258.53474 
   11000    16.407362   -23.235246   -6.8278845    3460.7393     254.3745 
   11100    16.639895   -23.402915   -6.7630199    3404.6261    257.97963 
   11200    16.893362   -23.605532     -6.71217    3335.6966     261.9093 
   11300    17.031184   -23.705667   -6.6744827    3315.0311    264.04604 
   11400    16.493809   -23.143993   -6.6501844    3488.6199    255.71475 
   11500    17.269777     -23.9093   -6.6395233    3249.1771    267.74511 
   11600    17.026544   -23.667899   -6.6413543    3327.2272     263.9741 
   11700    16.344782   -23.007014   -6.6622324    3546.7821    253.40428 
   11800    17.436842   -24.133619   -6.6967768    3182.3953    270.33523 
   11900    17.301868   -24.065592   -6.7637243    3199.3821    268.24263 
   12000    16.855347   -23.704831   -6.8494836    3374.5969    261.31992 
   12100    15.987808   -22.932034   -6.9442256    3595.1611    247.86987 
   12200    16.942664   -23.985507   -7.0428425    3259.8944    262.67365 
   12300    16.906194   -24.062687   -7.1564929    3203.6271    262.10823 
   12400    16.953551   -24.238642   -7.2850914    3123.7579    262.84244 
   12500    16.383478   -23.809446   -7.4259674     3248.167    254.00422 
   12600    16.233102   -23.799284   -7.5661824     3222.157    251.67283 
   12700    16.372976   -24.088938   -7.7159622     3144.158    253.84139 
   12800    16.417234   -24.276675   -7.8594412    3107.4538    254.52756 
   12900    15.512146   -23.512507   -8.0003612     3316.004    240.49535 
   13000    15.507589   -23.638322   -8.1307324    3264.6685    240.42471 
   13100    16.164285    -24.41845   -8.2541649    3038.8579    250.60591 
   13200    16.159074   -24.538668   -8.3795937    3013.6735    250.52512 
   13300    15.720043   -24.210842   -8.4907988    3134.0846    243.71852 
   13400    15.025186   -23.616936   -8.5917495    3304.3376    232.94569 
   13500      15.0621   -23.736304   -8.6742036    3265.3352    233.51799 
   13600    14.755106   -23.492544   -8.7374374    3339.5654    228.75846 
   13700    15.762898   -24.545924   -8.7830259    3008.6919    244.38294 
   13800    15.444965   -24.266435   -8.8214694    3086.9453    239.45381 
   13900    15.751496   -24.591766   -8.8402695    2961.4338    244.20616 
   14000    15.743972   -24.591359   -8.8473868    2952.2871    244.08952 
   14100    15.243087   -24.092486   -8.8493987    3080.6556    236.32395 
   14200    16.049668   -24.894316    -8.844648    2842.5174    248.82893 
   14300    15.074536   -23.908358   -8.8338226    3156.9868    233.71079 
   14400    15.411872   -24.217167   -8.8052949    3093.1783    238.94074 
   14500    14.961886   -23.721747    -8.759861    3257.5217     231.9643 
   14600    15.351538   -24.047146   -8.6956081     3180.142    238.00534 
   14700    15.575188    -24.18787   -8.6126812     3126.979    241.47275 
   14800    15.499552   -24.017102   -8.5175498    3172.7782     240.3001 
   14900    15.778508   -24.185986   -8.4074781    3104.0427    244.62495 
   15000    16.233471   -24.525156    -8.291685     2984.774    251.67856 
   15100    16.361214   -24.537723   -8.1765085     2987.499    253.65904 
   15200    15.785006   -23.854661    -8.069655    3216.2441    244.72569 
   15300    16.374558   -24.331712   -7.9571539    3117.2356    253.86592 
   15400    15.988973   -23.837406   -7.8484332    3306.8646    247.88793 
   15500    15.577252   -23.313557    -7.736305    3442.6507    241.50475 
   15600    16.035533   -23.649129   -7.6135962    3322.8282    248.60978 
   15700    15.947628   -23.442165   -7.4945376    3376.5965    247.24693 
   15800    16.144538   -23.521596   -7.3770582    3351.3418    250.29976 
   15900    16.211376   -23.468731   -7.2573545    3376.3564      251.336 
   16000    16.519581   -23.664375    -7.144794      3357.95     256.1143 
   16100    16.498887   -23.537631   -7.0387443     3390.038    255.79347 
   16200    17.646423    -24.59205   -6.9456275    3062.2759     273.5845 
   16300    16.860636   -23.735304   -6.8746679    3321.4867    261.40191 
   16400    16.818124    -23.62995   -6.8118256     3396.127    260.74283 
   16500    16.724861   -23.490376   -6.7655156    3423.0342     259.2969 
   16600    16.288462   -23.017096   -6.7286339    3547.1915    252.53111 
   16700    16.665553   -23.361206   -6.6956526    3420.6409    258.37742 
   16800    16.405205   -23.088424   -6.6832183    3520.1195    254.34107 
   16900    16.471899   -23.145981   -6.6740815    3535.1434    255.37506 
   17000    16.437388   -23.118004   -6.6806165     3545.138    254.84001 
   17100    17.202546   -23.890486   -6.6879398    3313.3313    266.70278 
   17200    16.351076   -23.067791   -6.7167153    3579.2978    253.50186 
   17300    16.955658   -23.713028   -6.7573707    3381.3175     262.8751 
   17400      15.8895    -22.70249   -6.8129898    3649.3949    246.34573 
   17500    17.102906   -23.970319   -6.8674128    3226.1805      265.158 
   17600    16.535818   -23.479258   -6.9434405    3360.6253    256.36604 
   17700    16.623818   -23.647578     -7.02376    3333.0804    257.73036 
   17800    16.437323   -23.548439   -7.1111161    3376.2835      254.839 
   17900    16.701083   -23.917414   -7.2163316    3294.7176    258.92825 
   18000    15.972316   -23.295841   -7.3235249    3477.3994    247.62969 
   18100    16.278968   -23.702865   -7.4238968    3312.6017    252.38392 
   18200    16.604995   -24.140775     -7.53578    3144.3398    257.43855 
   18300    16.506071    -24.15456   -7.6484889     3123.296    255.90485 
   18400    16.381286   -24.153903   -7.7726168    3114.7809    253.97023 
   18500    15.649731   -23.545609   -7.8958774    3304.5355    242.62843 
   18600    15.967969   -23.979661    -8.011692    3170.4471     247.5623 
   18700      16.1248    -24.24228   -8.1174808    3097.3976    249.99374 
   18800    15.404403   -23.619883   -8.2154804     3267.009    238.82494 
   18900    15.641591   -23.939951   -8.2983602    3175.6878    242.50224 
   19000    15.666551   -24.036441   -8.3698895    3149.5337    242.88921 
   19100    15.381298   -23.817697   -8.4363991     3224.937    238.46673 
   19200    15.704294   -24.186258   -8.4819642    3115.4508    243.47436 
   19300    15.888632   -24.410049   -8.5214173    3021.5019    246.33227 
   19400    15.327799   -23.878074   -8.5502747    3189.5098    237.63731 
   19500    15.491742   -24.060595   -8.5688522    3139.8846    240.17903 
   19600    15.528054   -24.102304   -8.5742502    3117.9166    240.74198 
   19700    15.579414   -24.152383   -8.5729696    3086.6785    241.53825 
   19800    15.374425   -23.935467    -8.561042     3133.491    238.36018 
   19900    15.764325   -24.299754   -8.5354281     3039.891    244.40507 
   20000    14.950626   -23.450902   -8.5002751    3279.1008    231.78974 
   20100    15.520304   -23.963167   -8.4428627    3135.2629    240.62184 
   20200    15.207194   -23.581087   -8.3738927    3256.7932    235.76749 
   20300    16.219296   -24.507418   -8.2881224    2985.4814    251.45879 
   20400    15.515587   -23.712967   -8.1973798    3244.7137    240.54871 
   20500    15.304723   -23.400866   -8.0961432    3327.3299    237.27954 
   20600    16.054643   -24.034287   -7.9796445    3126.5979    248.90606 
   20700    15.268052   -23.124011   -7.8559591    3463.5497      236.711 
   20800    16.179011   -23.895513   -7.7165019    3289.7459    250.83422 
   20900    15.575156   -23.151024   -7.5758679    3529.6335    241.47224 
   21000     16.31849   -23.752832   -7.4343414    3346.3335    252.99666 
   21100    15.745435   -23.044298   -7.2988627    3559.1714     244.1122 
   21200    16.384509   -23.549828   -7.1653193    3419.7656    254.02019 
   21300    16.526613   -23.567978   -7.0413651    3371.8486    256.22333 
   21400    16.493005   -23.425149   -6.9321441    3369.7861    255.70228 
   21500     17.09114    -23.93624   -6.8450998    3220.0826    264.97558 
   21600    16.338277    -23.11925   -6.7809734    3511.6372    253.30343 
   21700    16.229517    -22.96378   -6.7342631    3576.9086    251.61724 
   21800    16.455067   -23.147983   -6.6929154     3513.753    255.11411 
   21900    16.647408   -23.302315   -6.6549071     3485.871     258.0961 
   22000    16.735821   -23.366465   -6.6306446    3457.6758    259.46682 
   22100    16.839805   -23.463879   -6.6240743    3381.2111    261.07896 
   22200     17.24749    -23.88776   -6.6402698    3270.7414    267.39958 
   22300     16.87675   -23.543475   -6.6667243    3396.6246    261.65175 
   22400    17.001673   -23.713936   -6.7122624    3365.8399    263.58851 
   22500    16.361858   -23.131311   -6.7694526    3567.4682    253.66902 
   22600    16.752084   -23.581843   -6.8297591    3441.6326    259.71896 
   22700    16.288897   -23.191738   -6.9028417    3583.4482    252.53785 
   22800    15.962489   -22.944937    -6.982448    3646.3732    247.47734 
   22900    16.568785   -23.627225   -7.0584393    3405.6932    256.87716 
   23000     16.18867   -23.325604   -7.1369337    3488.8121    250.98398 
   23100    16.531839   -23.755342   -7.2235022    3315.4419    256.30436 
   23200    16.903741   -24.229857   -7.3261169    3113.8204     262.0702 
   23300    16.440654   -23.879783   -7.4391289    3208.4537    254.89065 
   23400    15.659875   -23.221858   -7.5619829    3419.6201    242.78571 
   23500    16.029757   -23.717306   -7.6875498    3303.1832    248.52023 
   23600    16.189585   -23.991749   -7.8021639    3229.8169    250.99816 
   23700    15.881522   -23.784799   -7.9032767    3301.8841    246.22205 
   23800    16.738495   -24.752215   -8.0137196    3018.1521    259.50828 
   23900    15.547267   -23.675963   -8.1286964    3348.6484    241.03986 
   24000    16.046475   -24.270958   -8.2244837    3189.1753    248.77942 
   24100    15.969855   -24.276548   -8.3066935    3162.8659    247.59153 
   24200    15.571948   -23.952795   -8.3808466    3244.7656    241.42252 
   24300    15.217048   -23.649016   -8.4319685    3333.5002    235.92025 
   24400       15.806   -24.266011   -8.4600116    3138.1011    245.05117 
   24500    15.493204   -23.973952   -8.4807481    3217.7997    240.20169 
   24600    15.501527   -23.988049   -8.4865223    3174.7773    240.33072 
   24700    15.731532   -24.212084   -8.4805522     3132.172    243.89665 
   24800    15.291859   -23.753529   -8.4616691    3275.6287    237.08011 
   24900    15.145547   -23.582498    -8.436951    3344.0085    234.81173 
   25000    16.242821   -24.641745   -8.3989239    2995.8845    251.82351 
   25100    16.132242   -24.496864   -8.3646219     2999.952    250.10913 
   25200     15.56192   -23.896404   -8.3344845    3218.0608    241.26703 
   25300    15.478888   -23.777877   -8.2989892     3282.595    239.97974 
   25400    15.743513   -24.004474    -8.260961    3233.7876     244.0824 
   25500     15.51578   -23.737061   -8.2212811     3309.675     240.5517 
   25600    16.476989   -24.651988    -8.174999    3034.5164    255.45398 
   25700    16.282444   -24.418565   -8.1361208     3063.294    252.43781 
   25800     15.93589    -24.03839   -8.1025005    3143.3292    247.06495 
   25900    15.835165   -23.905622   -8.0704572    3182.4207    245.50334 
   26000    16.592871   -24.628884   -8.0360135     2964.609    257.25057 
   26100    16.005829   -24.017684   -8.0118546    3149.6888    248.14927 
   26200    15.982489   -23.972254   -7.9897647    3183.2975    247.78741 
   26300    15.704417    -23.66802   -7.9636036    3277.9026    243.47626 
   26400    16.205402   -24.133905   -7.9285025    3140.2826    251.24338 
   26500    15.744137   -23.635171   -7.8910334    3281.5031    244.09207 
   26600    15.543899   -23.395642   -7.8517434    3379.5567    240.98764 
   26700    16.084469    -23.88911   -7.8046412    3243.5105    249.36847 
   26800    16.700797   -24.453916   -7.7531186    3038.0077    258.92383 
   26900    16.316562   -24.027279   -7.7107166    3142.2834    252.96677 
   27000    16.662652   -24.336681    -7.674029    3066.1888    258.33243 
   27100    16.113392   -23.758133   -7.6447419    3250.3137    249.81688 
   27200    16.276878    -23.89844   -7.6215623    3248.2099    252.35152 
   27300    16.445481   -24.046903   -7.6014216    3211.1554    254.96549 
   27400    15.782658   -23.365495   -7.5828368    3402.4623     244.6893 
   27500    16.307858   -23.872317   -7.5644596    3279.9272    252.83182 
   27600    16.167099   -23.712065   -7.5449665    3336.8098    250.64954 
   27700    15.627082   -23.140641   -7.5135586    3478.6471    242.27729 
   27800     16.19037   -23.666534   -7.4761634    3288.9073    251.01033 
   27900    16.468809   -23.905686   -7.4368771    3224.8513    255.32716 
   28000    16.160479     -23.5487   -7.3882204    3361.9543    250.54691 
   28100    16.582894   -23.916259   -7.3333647    3269.9191    257.09589 
   28200    16.841851   -24.115616   -7.2737646    3219.5331    261.11068 
   28300    16.584399   -23.800217   -7.2158179    3307.2533    257.11922 
   28400    16.111598   -23.271764   -7.1601661    3452.4986    249.78907 
   28500    16.410935    -23.50349   -7.0925548    3403.2585     254.4299 
   28600    16.551435   -23.580511    -7.029076    3403.6367    256.60817 
   28700    16.393557   -23.347721    -6.954164    3435.0063    254.16048 
   28800    17.147037   -24.026718   -6.8796816    3221.6908    265.84218 
   28900    16.989773   -23.798433   -6.8086606    3319.2432    263.40401 
   29000    16.770199   -23.512118   -6.7419193    3423.8045    259.99981 
   29100    16.674161    -23.35926   -6.6850988    3445.8192    258.51087 
   29200     17.24997   -23.892506   -6.6425361    3275.0202    267.43803 
   29300    16.770704   -23.379566   -6.6088612    3421.0035    260.00765 
   29400    16.653768   -23.233128   -6.5793595    3471.1958    258.19471 
   29500    16.681532   -23.247908   -6.5663758    3472.0656    258.62515 
   29600    16.677015   -23.242844   -6.5658283     3494.927    258.55512 
   29700    17.310832   -23.892684   -6.5818528    3294.5308    268.38161 
   29800    16.704064   -23.325787   -6.6217232    3438.7781    258.97447 
   29900     16.66897    -23.34591   -6.6769406    3434.8302    258.43038 
   30000    16.612015   -23.360498    -6.748483    3427.8585    257.54738 
   30100    16.541382   -23.371543   -6.8301611    3460.8337     256.4523 
   30200    16.270537   -23.200395   -6.9298574    3523.4774    252.25322 
   30300    16.597041   -23.640756   -7.0437154    3408.1105    257.31522 
   30400    16.689689   -23.858976   -7.1692873      3313.19    258.75161 
   30500     16.27386    -23.58415   -7.3102904    3328.7066    252.30472 
   30600    16.566195   -24.023131   -7.4569356    3187.9681      256.837 
   30700    15.974573   -23.586074   -7.6115013    3353.1738    247.66468 
   30800    16.133925   -23.883873   -7.7499484    3251.7455    250.13522 
   30900    16.138343   -24.021306   -7.8829629    3174.4798    250.20372 
   31000    15.732534   -23.743479   -8.0109443    3268.1707    243.91219 
   31100     15.79513   -23.914197   -8.1190669    3205.8088    244.88265 
   31200    15.440682   -23.651645   -8.2109622    3259.7679    239.38741 
   31300    16.163158    -24.45252   -8.2893614    3011.1093    250.58845 
   31400    15.568476   -23.925202   -8.3567268    3167.7375    241.36867 
   31500     15.49314   -23.902016   -8.4088758     3201.413     240.2007 
   31600    15.606859   -24.056602   -8.4497432    3138.5364    241.96376 
   31700    15.996418   -24.475192   -8.4787739     3007.742    248.00336 
   31800     15.15763   -23.660022   -8.5023916    3221.4974    234.99906 
   31900     16.06797   -24.575331   -8.5073602    2936.4631    249.11268 
   32000     15.80198   -24.314175   -8.5121953    3020.1306    244.98885 
   32100    16.007916   -24.521399   -8.5134839    2963.3973    248.18161 
   32200     15.45802   -23.967525   -8.5095049    3174.1392    239.65621 
   32300    16.133009   -24.624112   -8.4911037    2998.2462    250.12101 
   32400    15.616902   -24.084912   -8.4680096    3129.1067    242.11946 
   32500    16.045484   -24.484925   -8.4394406    3027.2084    248.76406 
   32600    15.685764   -24.090573   -8.4048083     3147.075    243.18708 
   32700    15.658672   -24.021492   -8.3628196     3164.532    242.76706 
   32800     15.67799   -23.978555   -8.3005651    3176.4939    243.06655 
   32900    15.670018   -23.892325   -8.2223069    3199.0388    242.94295 
   33000    15.985177   -24.120591    -8.135414    3144.7354    247.82907 
   33100    16.264888   -24.296434    -8.031546     3085.463    252.16564 
   33200    16.941608   -24.858715   -7.9171075     2912.712    262.65728 
   33300    16.465081   -24.274734   -7.8096532    3126.4075    255.26935 
   33400     16.16955   -23.873056   -7.7035064    3266.8194    250.68754 
   33500    16.809492   -24.396241    -7.586749     3110.864      260.609 
   33600    16.346923   -23.810993   -7.4640706    3293.7244    253.43747 
   33700    16.468382   -23.809583   -7.3412006    3325.9664    255.32054 
   33800    16.513949   -23.715233   -7.2012843    3335.7204    256.02699 
   33900    17.389219   -24.445347   -7.0561283    3095.5338     269.5969 
   34000    16.855069   -23.782442   -6.9273729    3310.1687    261.31561 
   34100    16.302034   -23.110242   -6.8082086    3504.6517    252.74153 
   34200     16.45556   -23.142398   -6.6868383    3500.9818    255.12174 
   34300     17.14556   -23.710865   -6.5653043    3352.3395    265.81929 
   34400     17.03003   -23.483427    -6.453397    3465.8008    264.02815 
   34500     16.57718   -22.928104   -6.3509246    3639.7988     257.0073 
   34600    17.251675   -23.502109   -6.2504341     3445.364    267.46446 
   34700    17.060603   -23.224876   -6.1642724    3524.9175    264.50215 
   34800    17.343051    -23.43539   -6.0923385    3452.4395    268.88113 
   34900    17.458869   -23.490676   -6.0318072    3420.3597    270.67673 
   35000      17.4841   -23.475685   -5.9915854    3447.1535     271.0679 
   35100    16.856793   -22.838435   -5.9816426    3670.0268    261.34233 
   35200     17.53304    -23.51653   -5.9834904    3440.6507    271.82665 
   35300    16.860422   -22.874488   -6.0140658    3606.9958     261.3986 
   35400     17.41912   -23.497614   -6.0784937    3431.5096    270.06047 
   35500    17.323715   -23.516342   -6.1926269    3411.6515    268.58134 
   35600     17.09811   -23.454935   -6.3568252    3409.6562    265.08364 
   35700    17.074109   -23.646036    -6.571927    3367.4259    264.71154 
   35800    16.676283   -23.500068   -6.8237858    3412.2551    258.54376 
   35900    16.308087    -23.39242   -7.0843332    3423.2064    252.83537 
   36000    16.588182   -23.920372   -7.3321893    3262.6255    257.17788 
   36100    16.478206   -24.033332    -7.555126    3193.7898    255.47285 
   36200    15.809856   -23.557655   -7.7477991    3302.6988    245.11096 
   36300    16.038267   -23.941558   -7.9032911    3183.8231    248.65217 
   36400     16.50318   -24.541495   -8.0383156    2983.0019    255.86003 
   36500    15.795887    -23.95724   -8.1613525    3178.9735    244.89439 
   36600    15.703318   -23.967074   -8.2637561    3229.1257    243.45922 
   36700    14.861965   -23.206934   -8.3449691    3472.8485    230.41515 
   36800    16.366092   -24.768975   -8.4028825    2970.5938    253.73467 
   36900    15.597207   -24.052262   -8.4550548    3141.3292    241.81412 
   37000    15.618158   -24.121967   -8.5038085    3110.5385    242.13894 
   37100    15.747612   -24.279651   -8.5320386    3026.0545    244.14595 
   37200    15.305879   -23.856014   -8.5501353    3164.4992    237.29746 
   37300    14.944605   -23.499512   -8.5549074    3304.3603    231.69638 
   37400     15.44419   -23.980071   -8.5358809    3175.0045    239.44178 
   37500    15.721688   -24.226184    -8.504496    3094.6145    243.74403 
   37600    15.925002   -24.389495   -8.4644932    3048.4937    246.89615 
   37700    15.761511   -24.177032   -8.4155216    3113.3008    244.36143 
   37800    15.703705    -24.05989   -8.3561855    3155.4681    243.46522 
   37900    15.127334   -23.422383   -8.2950488    3377.2552    234.52936 
   38000    15.279126   -23.490497   -8.2113715     3353.554    236.88269 
   38100    15.942945    -24.05229   -8.1093445     3176.504    247.17433 
   38200    15.921508   -23.920612    -7.999104     3209.544    246.84198 
   38300    16.002624   -23.889127   -7.8865034    3211.9059    248.09957 
   38400    16.081935   -23.855406   -7.7734705    3242.6247    249.32919 
   38500      15.8283   -23.493112   -7.6648112    3372.8327    245.39692 
   38600    16.500919   -24.053322   -7.5524033    3235.1044    255.82498 
   38700    16.320723   -23.768893   -7.4481699    3294.5922    253.03128 
   38800    16.067412    -23.41394   -7.3465277    3387.8211    249.10402 
   38900    15.909327   -23.164037   -7.2547105    3461.7678    246.65312 
   39000     16.82542   -23.984648   -7.1592277    3216.5736    260.85594 
   39100    16.470264     -23.5406   -7.0703362    3396.2125    255.34971 
   39200    16.011816   -23.005248   -6.9934322    3579.1157    248.24208 
   39300    16.522773    -23.44582   -6.9230468    3386.5838     256.1638 
   39400    17.328057   -24.188089   -6.8600318     3170.115    268.64867 
   39500    16.165898   -22.984858   -6.8189603    3556.9589    250.63092 
   39600    16.536925   -23.321874   -6.7849488    3489.7123    256.38321 
   39700    15.862109   -22.618807    -6.756698    3738.3555    245.92107 
   39800    16.022342   -22.750584   -6.7282422    3710.4922    248.40527 
   39900    16.586294   -23.284854   -6.6985594    3503.5295    257.14861 
   40000     16.92135   -23.591993   -6.6706431    3342.7933    262.34321 
   40100    16.673149   -23.333861   -6.6607119     3409.018    258.49518 
   40200    16.996388   -23.664799   -6.6684109    3348.7962    263.50658 
   40300    16.796325   -23.486626   -6.6903009    3439.6508    260.40486 
   40400    16.675852   -23.397787   -6.7219343     3476.955    258.53709 
   40500    16.629336   -23.394837   -6.7655018    3457.2047    257.81591 
   40600    16.955759   -23.780816   -6.8250576    3319.0268    262.87667 
   40700    16.384253   -23.296156   -6.9119029    3503.6267    254.01623 
   40800    16.645128   -23.656025   -7.0108962    3407.1302    258.06076 
   40900    16.672755   -23.809163   -7.1364079    3335.8299    258.48906 
   41000    16.442364   -23.729395    -7.287031    3357.2602    254.91716 
   41100     15.84045   -23.310318   -7.4698681    3485.1858    245.58528 
   41200    15.788342   -23.450559   -7.6622166    3405.7968    244.77742 
   41300    16.556679   -24.419021   -7.8623419    3095.7643    256.68947 
   41400    15.785982   -23.856272   -8.0702893    3236.6155    244.74083 
   41500    15.571865    -23.83609   -8.2642255     3209.435    241.42122 
   41600    16.051269   -24.487533   -8.4362637    2983.7183    248.85375 
   41700    15.683308   -24.263493   -8.5801848    3047.0858      243.149 
   41800     15.12781   -23.825748   -8.6979378    3198.9267    234.53674 
   41900    15.262149   -24.040044   -8.7778947    3163.6748    236.61948 
   42000    15.610596   -24.438957   -8.8283611    3058.0475     242.0217 
   42100    15.410462   -24.272546   -8.8620837    3090.2322    238.91889 
   42200    15.504525   -24.374956    -8.870431    3041.1357     240.3772 
   42300    15.980664   -24.846165   -8.8655012    2877.3852    247.75911 
   42400    15.511045   -24.374194   -8.8631489    3026.9474    240.47829 
   42500    15.431193   -24.280171   -8.8489785    3047.1685    239.24029 
   42600    15.793519   -24.616871   -8.8233524    2933.3703    244.85767 
   42700    15.727003   -24.525158   -8.7981553     2984.163    243.82643 
   42800    14.901283   -23.665533   -8.7642505    3262.4209    231.02473 
   42900    15.037571   -23.745026   -8.7074554    3257.1714     233.1377 
   43000    15.669098   -24.311498   -8.6424001    3069.4647     242.9287 
   43100    15.408961   -23.970463   -8.5615022    3156.8028    238.89561 
   43200    15.884925    -24.35812   -8.4731951    3016.8322    246.27481 
   43300    15.676662   -24.060432   -8.3837699    3093.6901    243.04597 
   43400    15.943663   -24.235437   -8.2917747    3079.2794    247.18545 
   43500    15.673296   -23.873628    -8.200332    3192.6694    242.99378 
   43600    15.205065   -23.306287   -8.1012227    3409.6331    235.73447 
   43700    15.528616   -23.530463   -8.0018475    3379.3243     240.7507 
   43800    15.890155     -23.7784   -7.8882446    3281.3509    246.35589 
   43900    15.946018   -23.724427    -7.778409    3305.2546    247.22197 
   44000    15.525134   -23.197589   -7.6724547    3473.3232    240.69672 
   44100    16.418132   -23.981124   -7.5629927    3239.7535    254.54147 
   44200    16.305539   -23.770474   -7.4649353    3299.6021    252.79586 
   44300    16.592866   -23.969131   -7.3762649    3239.3605     257.2505 
   44400    16.175855   -23.482418   -7.3065631    3387.9569    250.78529 
   44500    16.039997   -23.280106   -7.2401087    3443.1982    248.67899 
   44600    16.406607   -23.583344   -7.1767371    3328.4644     254.3628 
   44700    16.512389   -23.634337   -7.1219475     3339.423    256.00281 
   44800    16.428292   -23.508453    -7.080161    3358.2332    254.69899 
   44900     16.37729   -23.425604   -7.0483144    3405.1819    253.90827 
   45000    17.079039   -24.102105   -7.0230665    3194.2212    264.78797 
   45100    16.898243   -23.904541   -7.0062978    3219.6726    261.98496 
   45200    17.528087   -24.539393   -7.0113053    3051.1763    271.74987 
   45300     16.74503   -23.787175   -7.0421442     3276.995     259.6096 
   45400    16.768455    -23.85301   -7.0845551    3252.7408    259.97276 
   45500    16.276231    -23.41539   -7.1391592    3386.6929    252.34148 
   45600    15.128216    -22.32319   -7.1949743    3727.6933    234.54302 
   45700    15.989941   -23.226251   -7.2363102     3455.783    247.90294 
   45800    16.346188   -23.616582   -7.2703938    3317.5466    253.42608 
   45900    17.143023   -24.449236    -7.306213    3066.0024    265.77996 
   46000    15.976433   -23.327141   -7.3507079    3397.9325    247.69351 
   46100    16.442211   -23.845005   -7.4027937     3248.704     254.9148 
   46200    16.375416    -23.83063   -7.4552135    3239.7549    253.87922 
   46300    16.606415   -24.121985   -7.5155696    3165.0508    257.46056 
   46400    15.496156   -23.083447   -7.5872913    3526.0229    240.24745 
   46500    15.743154   -23.392197   -7.6490438    3458.7823    244.07683 
   46600    15.909445   -23.609751   -7.7003063     3427.563    246.65495 
   46700    15.576547   -23.326508   -7.7499613     3517.746    241.49381 
   46800    16.092456   -23.891735   -7.7992789    3326.8362     249.4923 
   46900    16.021831   -23.864538   -7.8427065    3284.8826    248.39736 
   47000     16.10005   -23.987701   -7.8876508    3226.7849    249.61004 
   47100      15.5637   -23.499254   -7.9355547    3352.2969    241.29463 
   47200    15.730862   -23.714738   -7.9838757    3291.9284    243.88627 
   47300    15.586037   -23.618012   -8.0319747    3326.1464    241.64094 
   47400    15.169317   -23.246499   -8.0771819    3419.3107    235.18025 
   47500    15.587137   -23.708962    -8.121825     3283.206      241.658 
   47600    14.990166    -23.15203   -8.1618635    3414.6749    232.40275 
   47700    16.379125   -24.577194   -8.1980686    2941.6004    253.93673 
   47800    16.143849   -24.391858   -8.2480092    3007.6882    250.28908 
   47900    15.278849   -23.585676   -8.3068272    3271.5117     236.8784 
   48000    15.245601   -23.611745   -8.3661449    3288.3344    236.36292 
   48100    15.205243   -23.627038   -8.4217956    3290.2536    235.73723 
   48200    15.938967   -24.405173   -8.4662066    3027.4177    247.11265 
   48300     15.50595   -24.014301   -8.5083516     3122.836    240.39929 
   48400    15.470199   -24.013069   -8.5428693    3134.6913    239.84503 
   48500    15.316556   -23.888082   -8.5715266    3161.4844    237.46299 
   48600    15.925536   -24.510711   -8.5851747     2976.274    246.90443 
   48700    15.371301   -23.962456   -8.5911553    3162.2912    238.31174 
   48800    15.447595   -24.033927   -8.5863311    3154.1406    239.49459 
   48900    16.080487   -24.644373   -8.5638864    2989.1618    249.30673 
   49000    15.077604   -23.614199   -8.5365954    3305.8236    233.75836 
   49100    15.362333   -23.855182   -8.4928489    3264.8926    238.17271 
   49200    15.421215   -23.847187   -8.4259721    3286.5883    239.08559 
   49300    15.197593   -23.537697   -8.3401043    3348.1289    235.61863 
   49400    16.111405   -24.348264   -8.2368586    3086.9513    249.78608 
   49500    15.429367   -23.554823   -8.1254559    3310.5343    239.21199 
   49600    16.229853   -24.230499   -8.0006463    3097.9726    251.62246 
   49700    15.834152   -23.706957   -7.8728053    3222.1616    245.48763 
   49800    16.295357   -24.045418   -7.7500603    3141.6257    252.63802 
   49900     15.73237   -23.355405   -7.6230354    3376.6847    243.90964 
   50000    16.092591   -23.588714   -7.4961232    3320.8335    249.49439 
Loop time of 32.2976 on 1 procs for 50000 steps with 500 atoms

Performance: 133.756 ns/day, 0.179 hours/ns, 1548.104 timesteps/s
99.7% CPU use with 1 MPI tasks x no OpenMP threads

MPI task timing breakdown:
Section |  min time  |  avg time  |  max time  |%varavg| %total
---------------------------------------------------------------
Pair    | 27.754     | 27.754     | 27.754     |   0.0 | 85.93
Neigh   | 2.2546     | 2.2546     | 2.2546     |   0.0 |  6.98
Comm    | 0.81119    | 0.81119    | 0.81119    |   0.0 |  2.51
Output  | 0.20389    | 0.20389    | 0.20389    |   0.0 |  0.63
Modify  | 0.97191    | 0.97191    | 0.97191    |   0.0 |  3.01
Other   |            | 0.3024     |            |       |  0.94

Nlocal:    500 ave 500 max 500 min
Histogram: 1 0 0 0 0 0 0 0 0 0
Nghost:    2122 ave 2122 max 2122 min
Histogram: 1 0 0 0 0 0 0 0 0 0
Neighs:    25966 ave 25966 max 25966 min
Histogram: 1 0 0 0 0 0 0 0 0 0

Total # of neighbors = 25966
Ave neighs/atom = 51.932
Neighbor list builds = 1765
Dangerous builds = 0
Setting up Verlet run ...
  Unit style    : metal
  Current step  : 50000
  Time step     : 0.001
Per MPI rank memory allocation (min/avg/max) = 3.825 | 3.825 | 3.825 Mbytes
Step KinEng PotEng TotEng Press Temp 
   50000    16.092591   -23.588714   -7.4961232    3320.8335    249.49439 
   50100     16.26458   -23.755866   -7.4912861    3248.5932    252.16085 
   50200    16.283977   -23.774865    -7.490888    3245.8176    252.46158 
   50300    16.470072   -23.962329   -7.4922566    3207.8235    255.34674 
   50400    16.292577   -23.779039    -7.486462    3271.4281    252.59491 
   50500    16.695849   -24.178935   -7.4830863    3133.3665    258.84711 
   50600    16.264695   -23.741412   -7.4767169    3262.4535    252.16263 
   50700    16.679248   -24.152651   -7.4734021    3147.7567    258.58974 
   50800    16.210636   -23.678284   -7.4676484    3298.8489    251.32452 
   50900    16.552661   -24.012008   -7.4593464    3218.8447    256.62718 
   51000    16.052604   -23.497604   -7.4449995    3377.4609    248.87445 
   51100    16.090096   -23.521448   -7.4313517    3355.8374    249.45571 
   51200    16.383043   -23.801143   -7.4181002    3253.0713    253.99746 
   51300    16.318351   -23.723497   -7.4051454    3287.1592    252.99451 
   51400    16.119965   -23.510333    -7.390368    3377.2946    249.91879 
   51500    16.479824   -23.859116   -7.3792925    3300.7173    255.49792 
   51600     15.98182     -23.3425   -7.3606803    3448.7045    247.77703 
   51700    16.240763   -23.587489   -7.3467255    3354.4742    251.79161 
   51800    16.290149   -23.616382   -7.3262329    3344.1022    252.55727 
   51900    16.899952   -24.205424   -7.3054725    3140.5767    262.01146 
   52000    16.948903   -24.228128    -7.279225    3124.2042    262.77038 
   52100    16.634004    -23.89519   -7.2611861    3257.9019    257.88828 
   52200    16.575475   -23.812482   -7.2370068    3295.2774    256.98088 
   52300    16.757369   -23.969839   -7.2124695    3252.4573     259.8009 
   52400    16.581614   -23.773064   -7.1914502    3312.2575    257.07605 
   52500    16.487229   -23.652871   -7.1656418    3338.1743    255.61273 
   52600    16.918971   -24.058253   -7.1392815    3221.3335    262.30633 
   52700    16.064228   -23.175056   -7.1108287    3484.4431    249.05466 
   52800    16.533729   -23.616268   -7.0825393     3359.081    256.33365 
   52900    16.667149   -23.721272   -7.0541236    3352.8385    258.40215 
   53000    16.320559   -23.347873   -7.0273142    3453.0612    253.02874 
   53100    16.967736   -23.966144   -6.9984077    3217.1332    263.06237 
   53200    17.156404   -24.121626   -6.9652212    3180.6652    265.98742 
   53300    17.309668   -24.237669   -6.9280011    3157.5443    268.36356 
   53400     16.44001   -23.335992   -6.8959815    3482.6516    254.88067 
   53500    16.373637   -23.235459   -6.8618215    3497.0091    253.85165 
   53600    16.705583   -23.533651   -6.8280679    3350.4797    258.99802 
   53700    17.190596   -23.983891    -6.793295    3217.8496    266.51751 
   53800      17.0178   -23.779231   -6.7614312    3314.8188    263.83854 
   53900    16.571684   -23.298037   -6.7263523    3460.3983     256.9221 
   54000    16.546973   -23.241011   -6.6940375    3464.2708    256.53899 
   54100    17.079956   -23.733749   -6.6537933    3310.4504    264.80218 
   54200    16.809482    -23.42524   -6.6157581    3396.9778    260.60884 
   54300    16.467596   -23.046684   -6.5790882    3513.9577    255.30835 
   54400    17.001638   -23.545554   -6.5439156    3393.9559    263.58797 
   54500    15.637695     -22.1508   -6.5131059    3822.8417    242.44182 
   54600    17.128947    -23.60985   -6.4809032    3383.7297    265.56173 
   54700    16.980828   -23.430325   -6.4494975    3432.8732    263.26533 
   54800    16.418926   -22.834095   -6.4151684    3639.9807    254.55379 
   54900    17.052165   -23.429935   -6.3777704    3466.5354    264.37132 
   55000    16.758674   -23.102481   -6.3438067    3548.2681    259.82113 
   55100    16.181764   -22.488441   -6.3066768    3710.1997    250.87691 
   55200    17.261924   -23.538109   -6.2761857    3409.5196    267.62336 
   55300    16.630835   -22.869896   -6.2390603    3600.5726    257.83916 
   55400    16.092838   -22.300062   -6.2072237    3818.4941    249.49823 
   55500    16.875956   -23.053122   -6.1771655    3586.8503    261.63944 
   55600    17.174731    -23.31802   -6.1432896    3499.6614    266.27154 
   55700    17.232482    -23.34149   -6.1090082    3483.0538     267.1669 
   55800    17.163905   -23.243654   -6.0797491    3507.9265     266.1037 
   55900     16.98725   -23.031457   -6.0442067    3556.6014     263.3649 
   56000    17.213523   -23.228283   -6.0147607     3483.461    266.87296 
   56100    17.414361   -23.396434   -5.9820739    3443.5035    269.98669 
   56200    17.127788    -23.07748   -5.9496923    3550.1719    265.54376 
   56300    16.953636   -22.872841   -5.9192048    3628.6409    262.84376 
   56400    16.438745    -22.32889   -5.8901448    3747.2645    254.86106 
   56500    17.826557   -23.689535   -5.8629779    3357.0871    276.37725 
   56600    16.647866   -22.481217    -5.833351    3749.3291    258.10319 
   56700    17.149815   -22.957281   -5.8074662    3616.1796    265.88526 
   56800    17.763602   -23.539683   -5.7760809     3421.184    275.40122 
   56900    17.587858   -23.333311   -5.7454528    3469.0754    272.67654 
   57000    17.392482   -23.109039   -5.7165568    3566.3983    269.64748 
   57100    17.216691   -22.905557   -5.6888654    3604.1042    266.92208 
   57200    18.058893   -23.717825   -5.6589316    3390.5607    279.97931 
   57300    18.596754   -24.222456   -5.6257026    3260.6312    288.31813 
   57400     17.20124   -22.797912   -5.5966726    3654.9936    266.68253 
   57500     17.70068   -23.271915   -5.5712349    3534.4089     274.4257 
   57600    17.334742   -22.880511   -5.5457683    3648.6964    268.75231 
   57700    18.159718   -23.677466   -5.5177483    3408.9766    281.54247 
   57800    17.451425   -22.936478   -5.4850531    3614.0156    270.56132 
   57900    17.757935   -23.212356   -5.4544205    3506.8782    275.31336 
   58000    17.070518   -22.495916   -5.4253976    3706.3701    264.65586 
   58100    17.530494   -22.927789    -5.397295      3591.04    271.78718 
   58200    18.011412   -23.385585   -5.3741731    3501.4647    279.24317 
   58300    17.313823    -22.65928   -5.3454565    3734.1541    268.42799 
   58400    18.010571   -23.327903   -5.3173317    3520.0572    279.23015 
   58500    17.904362   -23.191406    -5.287044    3525.9896    277.58352 
   58600    17.864528   -23.119274   -5.2547456    3549.2788    276.96594 
   58700    17.750143   -22.978941   -5.2287989    3631.3731    275.19254 
   58800    18.304492   -23.503556   -5.1990644    3482.2335      283.787 
   58900    18.232708   -23.400421   -5.1677127    3491.0754    282.67409 
   59000    17.801187   -22.936831   -5.1356445      3629.42    275.98392 
   59100    17.496247   -22.602493   -5.1062462    3739.5293    271.25623 
   59200    17.798958    -22.87714   -5.0781825     3632.523    275.94936 
   59300    17.864948    -22.91042   -5.0454726    3608.2483    276.97244 
   59400    17.573998   -22.588078   -5.0140802    3702.6217    272.46166 
   59500    17.398534   -22.384871    -4.986337    3766.0061    269.74132 
   59600    18.099619   -23.050178   -4.9505582    3578.9317    280.61072 
   59700    18.174098   -23.091694   -4.9175955    3607.7685    281.76541 
   59800    18.045579   -22.925929   -4.8803504     3631.994    279.77289 
   59900    17.499529   -22.352795   -4.8532656     3776.991    271.30711 
   60000    17.879264   -22.699484   -4.8202207    3681.7736     277.1944 
   60100    18.142022   -22.928685   -4.7866631    3604.8252    281.26811 
   60200    18.464368    -23.21795   -4.7535822    3523.7596    286.26567 
   60300    18.135729   -22.853597    -4.717868    3664.0025    281.17055 
   60400    17.727846   -22.417115   -4.6892688    3826.0891    274.84686 
   60500    17.887546   -22.541176   -4.6536291     3787.458    277.32281 
   60600    17.681165   -22.298199   -4.6170341    3844.7133    274.12314 
   60700    18.098322   -22.680168   -4.5818465     3733.633     280.5906 
   60800    18.411623   -22.958668   -4.5470459    3654.2034    285.44792 
   60900    17.891947   -22.409425   -4.5174772    3803.3931    277.39104 
   61000    19.112057   -23.592762   -4.4807048    3487.5961    296.30723 
   61100     18.47834   -22.925886   -4.4475462    3730.5874    286.48228 
   61200    18.759673   -23.169147   -4.4094746    3618.1403    290.84397 
   61300    19.053952   -23.426511   -4.3725591    3521.3433    295.40638 
   61400    18.183579   -22.515317   -4.3317378    3829.1801     281.9124 
   61500    18.068776   -22.364011   -4.2952358    3898.6196    280.13253 
   61600    18.425806   -22.685211   -4.2594048    3775.3389    285.66782 
   61700    18.616597   -22.839067   -4.2224697    3739.6186    288.62578 
   61800    18.405938   -22.590117   -4.1841792     3806.445    285.35978 
   61900    18.789798    -22.93885   -4.1490527    3686.5613    291.31102 
   62000    17.713957   -21.823597   -4.1096409    4013.6322    274.63153 
   62100    18.769632   -22.840957   -4.0713243    3735.8511    290.99838 
   62200    18.114158   -22.151623   -4.0374652    3938.8418    280.83612 
   62300    18.449124   -22.449637   -4.0005123    3844.4602    286.02933 
   62400    19.088904   -23.048735   -3.9598307    3686.4335    295.94827 
   62500    18.652223    -22.57332   -3.9210969    3843.2174    289.17811 
   62600    19.359148   -23.242094    -3.882946      3622.06    300.13805 
   62700    18.427212   -22.270913   -3.8437011    3920.5483    285.68961 
   62800    18.884326   -22.689077   -3.8047516     3818.703    292.77655 
   62900    18.291082   -22.053085   -3.7620029    3970.9099     283.5791 
   63000    19.163762   -22.890234   -3.7264719    3715.3239    297.10885 
   63100    19.362909   -23.045904   -3.6829948    3689.5515    300.19637 
   63200    18.865839   -22.510195   -3.6443566    3847.2997    292.48994 
   63300    19.720292   -23.326551    -3.606259    3600.7171    305.73711 
   63400    18.834522   -22.404896   -3.5703746    3890.3404    292.00441 
   63500    18.918568   -22.450348   -3.5317803    3872.6284    293.30743 
   63600    18.273308   -21.763862   -3.4905539    4078.0805    283.30353 
   63700    19.187858   -22.637669   -3.4498117    3839.3449    297.48242 
   63800    19.091715   -22.505749   -3.4140341    3853.1247    295.99185 
   63900    19.279452   -22.653551   -3.3740989     3803.981    298.90247 
   64000    18.698874   -22.033791   -3.3349179    3984.7148    289.90136 
   64100    19.204449   -22.496946   -3.2924975    3887.9966    297.73964 
   64200     18.67032   -21.924243   -3.2539233    4027.1241    289.45868 
   64300    19.442461   -22.656652   -3.2141904    3817.3794    301.42971 
   64400    18.948619   -22.120484    -3.171865    4002.4349    293.77334 
   64500    19.023704   -22.156639   -3.1329354     3979.205    294.93743 
   64600    19.277707   -22.367169   -3.0894618    3914.4566    298.87541 
   64700    19.140033   -22.190873   -3.0508397    3995.3607    296.74096 
   64800    18.868331   -21.880925   -3.0125944    4124.1351    292.52857 
   64900    18.902951   -21.875667   -2.9727164    4180.4237    293.06531 
   65000    18.423913   -21.355162   -2.9312491    4297.3765    285.63847 
   65100    19.794333   -22.685754   -2.8914214    3861.0673    306.88501 
   65200    19.394588   -22.244312   -2.8497242    3971.3059     300.6875 
   65300    20.128823   -22.939488   -2.8106646    3759.3676    312.07085 
   65400    20.127399   -22.894073   -2.7666738    3777.7853    312.04876 
   65500    18.849566   -21.580724   -2.7311581    4184.0272    292.23765 
   65600    19.171477   -21.859471   -2.6879946    4112.7008    297.22845 
   65700    19.756987   -22.408071    -2.651084    3968.3116    306.30602 
   65800    19.160222   -21.768674   -2.6084523    4150.6307    297.05396 
   65900    19.580617   -22.151314   -2.5706962    4065.4915    303.57164 
   66000    19.201215   -21.732065   -2.5308504    4163.5484     297.6895 
   66100    19.546628   -22.036931   -2.4903031     4068.731    303.04468 
   66200    19.272119    -21.72039   -2.4482711    4190.7086    298.78878 
   66300    19.457546   -21.868382   -2.4108358    4187.7191    301.66358 
   66400    19.191559   -21.559475   -2.3679157    4240.1992    297.53981 
   66500    19.673227   -22.001423   -2.3281964    4119.9372    305.00743 
   66600     19.16157   -21.449538   -2.2879685    4317.6221    297.07486 
   66700    19.257563   -21.503176   -2.2456121    4257.4361    298.56312 
   66800    19.988078   -22.192659   -2.2045807    4012.9353    309.88878 
   66900    19.773024   -21.939206   -2.1661819    4072.5262    306.55466 
   67000    20.269493   -22.396113   -2.1266208    3951.6211    314.25174 
   67100     19.94304    -22.02838   -2.0853398    4075.7174    309.19052 
   67200     20.25529    -22.29827   -2.0429803     4019.887    314.03154 
   67300    20.375911   -22.371309    -1.995398    4000.8738    315.90162 
   67400    20.057807   -22.014418   -1.9566103    4106.2708    310.96984 
   67500     20.06894   -21.981411   -1.9124716    4110.2795    311.14243 
   67600    20.224673   -22.094634   -1.8699604    4031.7471    313.55688 
   67700    19.745963    -21.57715   -1.8311869    4211.5192     306.1351 
   67800    19.427418   -21.217842   -1.7904242    4360.2408    301.19648 
   67900    19.906201   -21.656918   -1.7507168    4292.3809    308.61939 
   68000     20.03905    -21.75166   -1.7126098    4245.6591    310.67904 
   68100    20.310157   -21.979389   -1.6692311    4139.6818     314.8822 
   68200     19.51691   -21.147196   -1.6302864    4365.6626    302.58394 
   68300    20.778067   -22.365334   -1.5872664     3980.681    322.13652 
   68400    20.485346   -22.036061   -1.5507156    4117.0029    317.59826 
   68500     20.14878   -21.657033   -1.5082534    4236.5753    312.38025 
   68600     19.97943   -21.443299   -1.4638692    4283.4316     309.7547 
   68700    20.374397   -21.800081   -1.4256841    4177.7615    315.87814 
   68800    19.870751   -21.253875   -1.3831241    4369.9583    308.06978 
   68900    20.942903   -22.284839   -1.3419359    4079.2983    324.69208 
   69000    20.362843    -21.66433   -1.3014875    4297.1457    315.69901 
   69100      20.2805   -21.539781   -1.2592809    4303.8642     314.4224 
   69200    20.715438    -21.93183   -1.2163917    4129.9685    321.16553 
   69300    20.879585   -22.055917   -1.1763319    4097.2033    323.71041 
   69400    19.890107   -21.020548   -1.1304405     4417.842    308.36987 
   69500    19.949336   -21.041008   -1.0916726    4433.5886    309.28813 
   69600    19.848066   -20.899541   -1.0514744    4455.5916    307.71808 
   69700    21.137814   -22.150152   -1.0123377    4113.5519    327.71392 
   69800    19.643897   -20.615753  -0.97185612    4596.6253    304.55271 
   69900    20.139814    -21.07231  -0.93249587    4488.8826    312.24124 
   70000     20.97205     -21.8614  -0.88934946    4243.3836    325.14397 
   70100    20.776365   -21.621309  -0.84494399    4301.1235    322.11013 
   70200    20.943812   -21.747275   -0.8034635    4250.1771    324.70617 
   70300    20.679365   -21.437214   -0.7578494    4314.7588    320.60627 
   70400    20.871449   -21.590808  -0.71935955     4315.325    323.58427 
   70500    21.193842   -21.874818  -0.68097635    4256.7713    328.58256 
   70600    20.780119   -21.419507  -0.63938836    4360.9453    322.16833 
   70700    20.888167   -21.485911  -0.59774342    4345.3487    323.84348 
   70800    21.281471   -21.836862  -0.55539097    4243.5524    329.94113 
   70900    20.232546   -20.751544  -0.51899797    4585.8249    313.67893 
   71000    20.981059   -21.460268  -0.47920829    4412.2638    325.28365 
   71100    20.821511   -21.256034  -0.43452214    4419.3934    322.81007 
   71200    21.612358   -22.006962  -0.39460382    4174.2002     335.0711 
   71300    21.131962   -21.482174  -0.35021192    4331.5833    327.62319 
   71400    20.365009   -20.674936  -0.30992698    4557.2477     315.7326 
   71500    21.366837   -21.634047  -0.26720989    4241.1443    331.26462 
   71600     21.72631   -21.951809  -0.22549934    4141.3762    336.83777 
   71700    21.613199   -21.793457  -0.18025849    4179.7515    335.08413 
   71800    21.176144    -21.32056  -0.14441688    4336.4912    328.30817 
   71900    21.493412   -21.594056  -0.10064355    4304.7398      333.227 
   72000    21.255415   -21.315662 -0.060246722    4428.1142    329.53717 
   72100    21.278805    -21.29776 -0.018954728    4472.6649     329.8998 
   72200    21.815895   -21.791911  0.023984264    4272.7825    338.22667 
   72300    21.710398   -21.642935  0.067462849    4288.7219    336.59108 
   72400    21.086747   -20.978775   0.10797162    4483.5116    326.92219 
   72500    21.368602   -21.221828   0.14677335    4409.4169    331.29198 
   72600    20.990571   -20.803182   0.18738948    4570.8908    325.43111 
   72700    21.708545   -21.479879   0.22866525    4372.1303    336.56234 
   72800    21.171258    -20.90496   0.26629731    4471.5933    328.23242 
   72900    21.649389    -21.34203   0.30735933    4322.8702    335.64521 
   73000    21.613051   -21.261021      0.35203    4376.2526    335.08185 
   73100     21.85441   -21.462827   0.39158294    4336.1505    338.82379 
   73200    21.792462   -21.358428   0.43403319     4391.679    337.86337 
   73300    21.190469   -20.720026   0.47044292    4586.2451    328.53026 
   73400    22.315785   -21.804382   0.51140281    4272.3961     345.9768 
   73500    21.983425   -21.430886   0.55253923    4374.2132      340.824 
   73600    21.533318   -20.939129   0.59418893     4546.524    333.84568 
   73700    21.342963   -20.713136   0.62982786    4615.3284    330.89449 
   73800    22.104426   -21.434203   0.67022334    4395.7162    342.69997 
   73900     21.59757   -20.889084   0.70848618    4542.7424    334.84184 
   74000    21.726231    -20.97532   0.75091064    4515.8671    336.83655 
   74100    22.237699   -21.444603   0.79309595    4386.2519    344.76619 
   74200    21.548542   -20.715951   0.83259042    4639.3832    334.08171 
   74300     22.16722   -21.295421   0.87179885    4483.4541    343.67349 
   74400    22.326953   -21.419063   0.90789014    4431.1178    346.14996 
   74500    21.797687   -20.846114   0.95157226    4581.4555    337.94437 
   74600    21.471576   -20.480527   0.99104987    4745.9596    332.88846 
   74700    21.032441   -20.001649    1.0307926    4888.0456    326.08026 
   74800    22.632479   -21.560966    1.0715128    4368.5189    350.88673 
   74900    22.802426   -21.693534    1.1088913    4308.8533    353.52153 
   75000    23.181519   -22.029351    1.1521672    4225.8259    359.39886 
   75100    22.227742   -21.032412    1.1953302    4567.0734    344.61182 
   75200     21.99484   -20.760689    1.2341504    4681.4133    341.00097 
   75300    21.445671   -20.173421    1.2722504    4854.1759    332.48684 
   75400    22.131476   -20.821951     1.309525    4663.2429    343.11934 
   75500    22.446112    -21.09509    1.3510222    4538.9211    347.99735 
   75600    21.654667   -20.265498    1.3891693    4753.3525    335.72705 
   75700    22.077924   -20.647487    1.4304378    4624.7044    342.28909 
   75800    23.127189   -21.658295    1.4688935    4344.7534    358.55655 
   75900    22.129315   -20.622279    1.5070364    4680.5333    343.08584 
   76000    22.963766   -21.418094    1.5456718    4455.2678     356.0229 
   76100     23.30364   -21.718417    1.5852231    4382.4474     361.2922 
   76200    22.839171   -21.213703    1.6254685    4549.6383    354.09122 
   76300    22.728883    -21.06313    1.6657529     4610.902    352.38135 
   76400    22.602614      -20.901    1.7016139    4651.9861    350.42371 
   76500    22.546984   -20.805514    1.7414694    4701.9373    349.56124 
   76600    22.333161    -20.55159    1.7815707    4819.5042    346.24619 
   76700    21.945382   -20.127019    1.8183622    4954.5529    340.23419 
   76800    21.855089   -19.997924    1.8571645     4959.497    338.83431 
   76900    22.588569   -20.695183    1.8933864    4683.5035    350.20596 
   77000    22.672341   -20.738384    1.9339567     4671.088    351.50473 
   77100    22.112724   -20.143849    1.9688741    4835.6504    342.82861 
   77200    22.932143   -20.925371    2.0067721    4630.4858    355.53263 
   77300     22.13078   -20.085504    2.0452757     4900.244    343.10855 
   77400    22.528308    -20.44434    2.0839674    4777.6737    349.27169 
   77500    23.292781   -21.172688    2.1200933    4545.2894    361.12385 
   77600    22.974337   -20.808957      2.16538     4667.983    356.18678 
   77700    22.961761    -20.75712    2.2046411    4640.1115    355.99182 
   77800    22.755883   -20.518319    2.2375641    4727.4714    352.79994 
   77900    22.317801   -20.046918     2.270883    4890.7568    346.00805 
   78000    22.748161   -20.438893    2.3092674    4791.5134    352.68022 
   78100    21.785218   -19.438549    2.3466689    5103.9267    337.75107 
   78200    22.309494   -19.926429    2.3830646    4949.2289    345.87927 
   78300    22.824741   -20.400672    2.4240682     4849.201    353.86749 
   78400    23.234153   -20.773319    2.4608343    4738.4722    360.21489 
   78500    22.770236   -20.268052    2.5021841    4874.0921    353.02247 
   78600    23.416231   -20.879355    2.5368762    4669.8316    363.03777 
   78700    23.068949   -20.497401    2.5715475    4752.1292    357.65361 
   78800    23.098163   -20.484247    2.6139156    4770.7343    358.10654 
   78900    23.108397   -20.457184    2.6512129    4770.6485    358.26521 
   79000    23.883371   -21.196404    2.6869666    4498.5563    370.28016 
   79100    23.281073   -20.563213    2.7178596    4713.7284    360.94232 
   79200    22.617211   -19.859594    2.7576178    4993.1081    350.65003 
   79300     23.07795   -20.287055    2.7908951    4875.0619    357.79317 
   79400     22.71891   -19.886822    2.8320877    5053.0771    352.22672 
   79500    23.185398   -20.317541    2.8678574    4930.4086    359.45901 
   79600     23.68994   -20.785095     2.904845    4759.8121    367.28126 
   79700    23.180346   -20.237524    2.9428223    4874.5751    359.38068 
   79800    24.429661   -21.450782    2.9788784    4478.6791    378.74966 
   79900    22.281596    -19.26694    3.0146557     5103.505    345.44675 
   80000    23.376389   -20.329032    3.0473569    4802.8295    362.42008 
   80100    22.559271   -19.476588    3.0826829    5048.0998    349.75173 
   80200    22.133876   -19.014358    3.1195174    5233.4787    343.15654 
   80300    23.401654   -20.243969    3.1576847    4921.2044    362.81177 
   80400    22.502704   -19.314996    3.1877077    5230.2712    348.87474 
   80500     22.67533    -19.45174    3.2235905    5166.1946    351.55108 
   80600    23.073093   -19.816745    3.2563479    5088.2915    357.71787 
   80700    22.461706   -19.170886    3.2908207    5223.5554    348.23912 
   80800    22.957299   -19.632856    3.3244434    5068.7736    355.92264 
   80900    23.527984   -20.167058    3.3609254    4945.7022    364.77035 
   81000    23.720331   -20.323502    3.3968283    4879.0269    367.75243 
   81100    23.571544    -20.13575    3.4357944     4899.533    365.44569 
   81200    23.647141   -20.176055    3.4710854    4925.7632    366.61772 
   81300    23.103553   -19.596262    3.5072909    5104.1988    358.19011 
   81400    23.921484   -20.381861    3.5396225    4844.8912    370.87105 
   81500    23.600278    -20.02476    3.5755179    4939.9647    365.89118 
   81600     23.25405   -19.644611    3.6094386      5106.58    360.52336 
   81700    23.870919   -20.228947     3.641972    4939.6502     370.0871 
   81800    24.504702   -20.829917    3.6747853    4727.6172    379.91308 
   81900    23.285427   -19.575846    3.7095806    5104.2318    361.00982 
   82000    24.111915   -20.366976    3.7449393    4923.8814    373.82344 
   82100    24.454837   -20.674287    3.7805496    4825.2141    379.13998 
   82200    23.757011   -19.946072    3.8109394     5021.044    368.32111 
   82300    24.037503    -20.18995    3.8475537    4934.6559    372.66978 
   82400    23.699122   -19.817672    3.8814507    5048.3812    367.42362 
   82500    23.938056   -20.027606    3.9104502    4985.9081    371.12798 
   82600    22.897152   -18.954323    3.9428285     5316.596    354.99013 
   82700    24.262944     -20.2834    3.9795447    4878.8104    376.16494 
   82800    23.621557   -19.610405    4.0111519    5060.2744    366.22107 
   82900     24.08945   -20.044989    4.0444618    4963.8675    373.47515 
   83000    23.454587   -19.374279    4.0803082    5181.7522    363.63243 
   83100    23.678581   -19.566029    4.1125521    5147.7189    367.10516 
   83200    24.141787   -20.000387    4.1413999    5017.1227    374.28656 
   83300    23.982635   -19.808766    4.1738691     5077.817    371.81911 
   83400    23.535978   -19.330462     4.205516    5239.4858    364.89429 
   83500    23.999263   -19.757491     4.241772    5092.3004    372.07691 
   83600    23.855384   -19.587859    4.2675258    5135.6316    369.84626 
   83700    24.066818   -19.766459    4.3003589    5077.4264    373.12426 
   83800    24.588816   -20.257182    4.3316337    4917.1067    381.21715 
   83900    24.214149   -19.850494    4.3636552    5053.7979    375.40844 
   84000    24.397713   -20.001931    4.3957813    5020.4114    378.25435 
   84100    24.571298    -20.14708    4.4242173    4958.3954    380.94555 
   84200    23.527828   -19.067195    4.4606329      5251.77    364.76793 
   84300    24.443356   -19.952338    4.4910172    5007.8654    378.96198 
   84400    24.213159   -19.691199    4.5219604    5053.2246    375.39309 
   84500    25.446335   -20.899907    4.5464279    4729.9427    394.51185 
   84600    23.830716   -19.249993    4.5807226    5268.5365    369.46381 
   84700    24.459676    -19.84703    4.6126462    5042.9132    379.21501 
   84800    24.875343    -20.23585    4.6394931    4932.8046    385.65937 
   84900    24.634325   -19.961808    4.6725167    5014.3017    381.92271 
   85000    24.828116   -20.123448     4.704668    4971.7652    384.92718 
   85100    24.470308   -19.737407    4.7329012    5064.4076    379.37984 
   85200    23.910982    -19.14727    4.7637112    5233.4558    370.70822 
   85300    24.317838   -19.528763    4.7890751      5148.18      377.016 
   85400    24.294408   -19.475028      4.81938    5166.6653    376.65275 
   85500    24.716562   -19.873605    4.8429576    5088.4782    383.19769 
   85600    24.609717   -19.736996     4.872721    5128.2829     381.5412 
   85700     24.60223   -19.700581    4.9016493    5165.3326    381.42512 
   85800    24.549446   -19.616537    4.9329094     5164.765    380.60677 
   85900    23.978979   -19.022926    4.9560532    5357.9524    371.76244 
   86000    23.963024   -18.980569    4.9824545     5366.933    371.51507 
   86100    24.150255   -19.138625    5.0116306    5357.7372    374.41785 
   86200    23.746508   -18.705581    5.0409271    5478.2914    368.15828 
   86300    25.049248   -19.984679    5.0645697    5069.6593    388.35555 
   86400    24.563631   -19.475014    5.0886168     5202.812    380.82669 
   86500    25.139714   -20.023276    5.1164385    5059.1949     389.7581 
   86600    24.352969   -19.212491    5.1404776    5317.9504    377.56065 
   86700    24.713848   -19.544709    5.1691384    5233.1372     383.1556 
   86800    24.997834   -19.800423    5.1974113    5114.0103    387.55844 
   86900    24.640867   -19.420082     5.220785    5219.7163    382.02413 
   87000    24.541747   -19.292993     5.248754    5222.7025    380.48741 
   87100    25.094566   -19.820166       5.2744    5095.5544    389.05813 
   87200    24.469916   -19.164869    5.3050478     5305.121    379.37377 
   87300    26.270306   -20.939369     5.330937    4777.2334    407.28643 
   87400    25.042413   -19.685749    5.3566644    5136.1106    388.24958 
   87500    25.006405   -19.627122    5.3792823    5147.7962    387.69131 
   87600    25.580634   -20.177426    5.4032076    4965.9315    396.59398 
   87700    25.517118   -20.088093    5.4290257    5019.4096    395.60925 
   87800    25.055979   -19.603963    5.4520169    5229.2694    388.45991 
   87900     24.44126   -18.966448    5.4748116    5421.6667    378.92949 
   88000    25.791233   -20.289059    5.5021735    5013.5147    399.85904 
   88100    25.117467   -19.590974    5.5264932    5209.6527     389.4132 
   88200    25.635553   -20.087294    5.5482599    5092.2578    397.44543 
   88300    24.468816   -18.899722    5.5690945    5449.7456    379.35671 
   88400    24.709583   -19.119836    5.5897467     5387.435    383.08948 
   88500    25.113884    -19.50204    5.6118441      5231.28    389.35764 
   88600    24.066542   -18.437094    5.6294486    5533.3331    373.11999 
   88700    24.603741   -18.951235    5.6525064     5440.067    381.44855 
   88800    25.060255   -19.387029    5.6732263    5311.7197    388.52619 
   88900    24.291929   -18.595592    5.6963374    5544.5231    376.61432 
   89000    24.594616   -18.875505    5.7191112    5453.0666    381.30708 
   89100    24.994292   -19.257439    5.7368526    5331.0181    387.50352 
   89200    24.159023   -18.394444    5.7645799    5564.1604    374.55379 
   89300    24.716733   -18.937509    5.7792247    5405.9065    383.20034 
   89400    25.709887    -19.90884    5.8010467    5078.9286    398.59788 
   89500    25.754917   -19.931294    5.8236228    5078.7126      399.296 
   89600    24.858512   -19.018049    5.8404626    5366.6217    385.39843 
   89700    24.895192   -19.032025    5.8631669    5399.3287    385.96711 
   89800    24.633899   -18.750303    5.8835965    5502.3676    381.91611 
   89900    25.212071   -19.311252    5.9008186    5355.9434     390.8799 
   90000    24.995971    -19.07944     5.916531    5404.7528    387.52955 
   90100    25.252478   -19.319773    5.9327055    5321.9801    391.50636 
   90200    25.750933   -19.799474    5.9514589    5179.2904    399.23424 
   90300    25.439249   -19.467389    5.9718604    5268.6228      394.402 
   90400    24.944405   -18.954372    5.9900327    5485.1526    386.73008 
   90500     24.97738   -18.967838    6.0095426    5442.5308    387.24133 
   90600    25.785146   -19.754904    6.0302421    5150.0236    399.76466 
   90700    25.266633   -19.216175    6.0504583    5295.3451    391.72581 
   90800    25.139212   -19.071789    6.0674233    5325.4393    389.75032 
   90900    25.974647   -19.886338    6.0883093    5066.2667    402.70264 
   91000    25.200483   -19.097261    6.1032212       5338.9    390.70023 
   91100    25.590361   -19.469597    6.1207635    5237.0753    396.74478 
   91200    25.963896   -19.830205     6.133691     5119.296    402.53595 
   91300    24.883213   -18.731272    6.1519407     5445.292    385.78139 
   91400    26.200005   -20.031546    6.1684597    5021.3832    406.19652 
   91500    25.658288   -19.480197    6.1780909    5189.3031     397.7979 
   91600    25.818493   -19.625246    6.1932474    5200.9632    400.28167 
   91700    24.977513   -18.765769     6.211744    5466.5453    387.24338 
   91800    26.517249   -20.291555    6.2256944    4986.5886    411.11496 
   91900     25.37191   -19.133908     6.238002    5301.8803    393.35799 
   92000    26.959626   -20.707412    6.2522136    4833.3049    417.97343 
   92100    24.550926   -18.279549    6.2713765    5528.2602    380.62971 
   92200    26.286008     -20.0053    6.2807081    5080.8935    407.52988 
   92300    25.806036   -19.515588    6.2904478    5242.7794    400.08854 
   92400    25.398254   -19.095876    6.3023772    5429.4418    393.76641 
   92500    26.043287   -19.730873     6.312414     5288.234     403.7668 
   92600    26.268134   -19.942882    6.3252519    5232.4398    407.25276 
   92700    25.248237   -18.911137    6.3371004    5499.2412    391.44061 
   92800    25.278363   -18.930901    6.3474629    5478.2367    391.90768 
   92900    25.096919   -18.735772    6.3611473    5521.6817    389.09462 
   93000     25.84137   -19.468534    6.3728361    5282.5713    400.63636 
   93100    24.814611   -18.431959    6.3826516    5571.5098     384.7178 
   93200     26.35458    -19.96302    6.3915598    5120.5446    408.59299 
   93300    25.637191   -19.235564    6.4016275    5288.7439    397.47083 
   93400    25.625598   -19.218599     6.406999    5294.1973    397.29108 
   93500    25.331833   -18.913911    6.4179215    5412.7638    392.73664 
   93600    25.665476    -19.23631    6.4291655    5340.5168    397.90934 
   93700    25.907913   -19.470407    6.4375056    5254.6738    401.66801 
   93800    25.642389   -19.200388    6.4420011    5325.5103    397.55142 
   93900    25.215868   -18.769491    6.4463763    5474.7827    390.93876 
   94000    24.729505   -18.271795      6.45771    5642.3947    383.39835 
   94100     26.70046   -20.229969    6.4704908    5026.0912    413.95541 
   94200    25.567514   -19.090412    6.4771015    5342.9016    396.39057 
   94300    25.852649   -19.372302    6.4803464    5291.0899    400.81121 
   94400    24.733054    -18.24877    6.4842844    5645.6751    383.45337 
   94500    26.338994   -19.849745    6.4892495     5217.776    408.35136 
   94600    25.473317   -18.976763     6.496554    5464.9784    394.93017 
   94700    26.405211   -19.903664    6.5015479    5202.2994    409.37797 
   94800    25.433249   -18.924459      6.50879    5441.0237    394.30897 
   94900    25.111151   -18.601714     6.509437         5541    389.31526 
   95000    25.562506   -19.051392     6.511114     5392.421    396.31294 
   95100    25.026768   -18.503845    6.5229228    5547.9862    388.00702 
   95200    25.725717   -19.199798    6.5259188    5361.9896    398.84329 
   95300    25.740613   -19.210094    6.5305189    5393.9878    399.07425 
   95400    24.950162   -18.416668    6.5334938    5643.9815    386.81934 
   95500    25.572181   -19.036377    6.5358038    5440.0488    396.46293 
   95600    25.612639   -19.075574    6.5370647    5436.1827    397.09017 
   95700    25.535857   -18.994691    6.5411658    5467.8024    395.89977 
   95800    25.374746   -18.830409    6.5443374     5488.763    393.40196 
   95900    26.037842     -19.4914    6.5464427    5276.7695    403.68239 
   96000    25.429111   -18.882338    6.5467738    5464.0302    394.24482 
   96100    25.797532   -19.250546     6.546986    5360.9769     399.9567 
   96200    25.908443   -19.359433    6.5490101    5300.8307    401.67622 
   96300    25.892987   -19.347063    6.5459232    5282.1578     401.4366 
   96400    25.628182   -19.078521    6.5496608    5350.4045    397.33114 
   96500    25.710576   -19.160175    6.5504004    5354.5683    398.60856 
   96600    25.159516   -18.612444    6.5470724    5503.2756    390.06511 
   96700    26.238294   -19.693812    6.5444821    5157.1008    406.79013 
   96800    25.731693   -19.184343    6.5473499    5322.3013    398.93595 
   96900    25.689464   -19.138981    6.5504838    5412.1247    398.28125 
   97000    24.656777   -18.107215    6.5495623    5666.2325     382.2708 
   97100    25.013722   -18.469475    6.5442474    5556.5505    387.80476 
   97200    25.867441   -19.325837    6.5416034     5324.743    401.04054 
   97300     25.76996   -19.232617    6.5373434    5292.4714    399.52924 
   97400    24.912843    -18.37909    6.5337527    5521.2542    386.24076 
   97500    25.533016   -18.997267    6.5357482    5378.6564    395.85572 
   97600    26.395835      -19.864     6.531835    5141.0707     409.2326 
   97700    25.655239   -19.127201     6.528038    5359.2932    397.75064 
   97800    25.467385   -18.942693    6.5246925    5417.9852    394.83821 
   97900    24.616294   -18.096312    6.5199819    5640.7395    381.64317 
   98000    25.891026   -19.378778     6.512248    5249.2109     401.4062 
   98100    25.181943   -18.676931    6.5050127    5475.4841    390.41281 
   98200    25.500583   -19.000847    6.4997357     5436.832     395.3529 
   98300    25.090619   -18.596409    6.4942097    5594.1875    388.99694 
   98400    25.875131   -19.387988    6.4871439    5339.8155    401.15978 
   98500    25.869691   -19.385407    6.4842844    5321.1131    401.07544 
   98600    25.559295   -19.081096     6.478199    5388.5561    396.26315 
   98700    26.176906     -19.7071    6.4698065    5207.7853    405.83839 
   98800    25.898928   -19.432573    6.4663549    5270.3836    401.52871 
   98900    25.603695   -19.141716    6.4619794    5354.7261    396.95151 
   99000    25.836464   -19.382511    6.4539536    5309.3979     400.5603 
   99100    24.558671   -18.117799    6.4408718    5681.2261    380.74979 
   99200    25.746405   -19.313533     6.432872    5338.7274    399.16404 
   99300    25.729807   -19.303863    6.4259446    5335.9523    398.90671 
   99400    26.808799    -20.39217    6.4166287    4974.3904    415.63505 
   99500    25.564067   -19.157319    6.4067484     5349.056    396.33713 
   99600    25.874119    -19.47379    6.4003297    5270.2513    401.14408 
   99700    25.373797   -18.986707    6.3870898    5416.9772    393.38725 
   99800    25.953681   -19.578907    6.3747746    5221.9349    402.37759 
   99900    26.295163   -19.929566    6.3655964    5101.8639    407.67181 
  100000    25.717135   -19.363622    6.3535135    5277.6246    398.71025 
Loop time of 32.7174 on 1 procs for 50000 steps with 500 atoms

Performance: 132.040 ns/day, 0.182 hours/ns, 1528.240 timesteps/s
99.7% CPU use with 1 MPI tasks x no OpenMP threads

MPI task timing breakdown:
Section |  min time  |  avg time  |  max time  |%varavg| %total
---------------------------------------------------------------
Pair    | 27.772     | 27.772     | 27.772     |   0.0 | 84.89
Neigh   | 2.6365     | 2.6365     | 2.6365     |   0.0 |  8.06
Comm    | 0.82554    | 0.82554    | 0.82554    |   0.0 |  2.52
Output  | 0.20404    | 0.20404    | 0.20404    |   0.0 |  0.62
Modify  | 0.97415    | 0.97415    | 0.97415    |   0.0 |  2.98
Other   |            | 0.3049     |            |       |  0.93

Nlocal:    500 ave 500 max 500 min
Histogram: 1 0 0 0 0 0 0 0 0 0
Nghost:    2138 ave 2138 max 2138 min
Histogram: 1 0 0 0 0 0 0 0 0 0
Neighs:    26023 ave 26023 max 26023 min
Histogram: 1 0 0 0 0 0 0 0 0 0

Total # of neighbors = 26023
Ave neighs/atom = 52.046
Neighbor list builds = 2060
Dangerous builds = 0
Total wall time: 0:01:05
