ITEM: TIMESTEP
0
ITEM: NUMBER OF ATOMS
24000
ITEM: BOX BOUNDS pp pp pp
-3.1000000000000000e+01 3.1000000000000000e+01
-3.1000000000000000e+01 3.1000000000000000e+01
-1.2400000000000000e+02 1.2400000000000000e+02
ITEM: ATOMS id type x y z
1 2 -29.45 -29.45 -29.5
2 1 -29.45 -28.6335 -28.9226
3 1 -29.45 -30.2665 -28.9226
4 2 -26.35 -29.45 -29.5
5 1 -26.35 -28.6335 -28.9226
6 1 -26.35 -30.2665 -28.9226
7 2 -23.25 -29.45 -29.5
8 1 -23.25 -28.6335 -28.9226
9 1 -23.25 -30.2665 -28.9226
10 2 -20.15 -29.45 -29.5
11 1 -20.15 -28.6335 -28.9226
12 1 -20.15 -30.2665 -28.9226
13 2 -17.05 -29.45 -29.5
14 1 -17.05 -28.6335 -28.9226
15 1 -17.05 -30.2665 -28.9226
16 2 -13.95 -29.45 -29.5
17 1 -13.95 -28.6335 -28.9226
18 1 -13.95 -30.2665 -28.9226
19 2 -10.85 -29.45 -29.5
20 1 -10.85 -28.6335 -28.9226
21 1 -10.85 -30.2665 -28.9226
22 2 -7.75 -29.45 -29.5
23 1 -7.75 -28.6335 -28.9226
24 1 -7.75 -30.2665 -28.9226
25 2 -4.65 -29.45 -29.5
26 1 -4.65 -28.6335 -28.9226
27 1 -4.65 -30.2665 -28.9226
28 2 -1.55 -29.45 -29.5
29 1 -1.55 -28.6335 -28.9226
30 1 -1.55 -30.2665 -28.9226
31 2 1.55 -29.45 -29.5
32 1 1.55 -28.6335 -28.9226
33 1 1.55 -30.2665 -28.9226
34 2 4.65 -29.45 -29.5
35 1 4.65 -28.6335 -28.9226
36 1 4.65 -30.2665 -28.9226
37 2 7.75 -29.45 -29.5
38 1 7.75 -28.6335 -28.9226
39 1 7.75 -30.2665 -28.9226
40 2 10.85 -29.45 -29.5
41 1 10.85 -28.6335 -28.9226
42 1 10.85 -30.2665 -28.9226
43 2 13.95 -29.45 -29.5
44 1 13.95 -28.6335 -28.9226
45 1 13.95 -30.2665 -28.9226
46 2 17.05 -29.45 -29.5
47 1 17.05 -28.6335 -28.9226
48 1 17.05 -30.2665 -28.9226
49 2 20.15 -29.45 -29.5
50 1 20.15 -28.6335 -28.9226
51 1 20.15 -30.2665 -28.9226
52 2 23.25 -29.45 -29.5
53 1 23.25 -28.6335 -28.9226
54 1 23.25 -30.2665 -28.9226
55 2 26.35 -29.45 -29.5
56 1 26.35 -28.6335 -28.9226
57 1 26.35 -30.2665 -28.9226
58 2 29.45 -29.45 -29.5
59 1 29.45 -28.6335 -28.9226
60 1 29.45 -30.2665 -28.9226
61 2 -29.45 -26.35 -29.5
62 1 -29.45 -25.5335 -28.9226
63 1 -29.45 -27.1665 -28.9226
64 2 -26.35 -26.35 -29.5
65 1 -26.35 -25.5335 -28.9226
66 1 -26.35 -27.1665 -28.9226
67 2 -23.25 -26.35 -29.5
68 1 -23.25 -25.5335 -28.9226
69 1 -23.25 -27.1665 -28.9226
70 2 -20.15 -26.35 -29.5
71 1 -20.15 -25.5335 -28.9226
72 1 -20.15 -27.1665 -28.9226
73 2 -17.05 -26.35 -29.5
74 1 -17.05 -25.5335 -28.9226
75 1 -17.05 -27.1665 -28.9226
76 2 -13.95 -26.35 -29.5
77 1 -13.95 -25.5335 -28.9226
78 1 -13.95 -27.1665 -28.9226
79 2 -10.85 -26.35 -29.5
80 1 -10.85 -25.5335 -28.9226
81 1 -10.85 -27.1665 -28.9226
82 2 -7.75 -26.35 -29.5
83 1 -7.75 -25.5335 -28.9226
84 1 -7.75 -27.1665 -28.9226
85 2 -4.65 -26.35 -29.5
86 1 -4.65 -25.5335 -28.9226
87 1 -4.65 -27.1665 -28.9226
88 2 -1.55 -26.35 -29.5
89 1 -1.55 -25.5335 -28.9226
90 1 -1.55 -27.1665 -28.9226
91 2 1.55 -26.35 -29.5
92 1 1.55 -25.5335 -28.9226
93 1 1.55 -27.1665 -28.9226
94 2 4.65 -26.35 -29.5
95 1 4.65 -25.5335 -28.9226
96 1 4.65 -27.1665 -28.9226
97 2 7.75 -26.35 -29.5
98 1 7.75 -25.5335 -28.9226
99 1 7.75 -27.1665 -28.9226
100 2 10.85 -26.35 -29.5
101 1 10.85 -25.5335 -28.9226
102 1 10.85 -27.1665 -28.9226
103 2 13.95 -26.35 -29.5
104 1 13.95 -25.5335 -28.9226
105 1 13.95 -27.1665 -28.9226
106 2 17.05 -26.35 -29.5
107 1 17.05 -25.5335 -28.9226
108 1 17.05 -27.1665 -28.9226
109 2 20.15 -26.35 -29.5
110 1 20.15 -25.5335 -28.9226
111 1 20.15 -27.1665 -28.9226
112 2 23.25 -26.35 -29.5
113 1 23.25 -25.5335 -28.9226
114 1 23.25 -27.1665 -28.9226
115 2 26.35 -26.35 -29.5
116 1 26.35 -25.5335 -28.9226
117 1 26.35 -27.1665 -28.9226
118 2 29.45 -26.35 -29.5
119 1 29.45 -25.5335 -28.9226
120 1 29.45 -27.1665 -28.9226
121 2 -29.45 -23.25 -29.5
122 1 -29.45 -22.4335 -28.9226
123 1 -29.45 -24.0665 -28.9226
124 2 -26.35 -23.25 -29.5
125 1 -26.35 -22.4335 -28.9226
126 1 -26.35 -24.0665 -28.9226
127 2 -23.25 -23.25 -29.5
128 1 -23.25 -22.4335 -28.9226
129 1 -23.25 -24.0665 -28.9226
130 2 -20.15 -23.25 -29.5
131 1 -20.15 -22.4335 -28.9226
132 1 -20.15 -24.0665 -28.9226
133 2 -17.05 -23.25 -29.5
134 1 -17.05 -22.4335 -28.9226
135 1 -17.05 -24.0665 -28.9226
136 2 -13.95 -23.25 -29.5
137 1 -13.95 -22.4335 -28.9226
138 1 -13.95 -24.0665 -28.9226
139 2 -10.85 -23.25 -29.5
140 1 -10.85 -22.4335 -28.9226
141 1 -10.85 -24.0665 -28.9226
142 2 -7.75 -23.25 -29.5
143 1 -7.75 -22.4335 -28.9226
144 1 -7.75 -24.0665 -28.9226
145 2 -4.65 -23.25 -29.5
146 1 -4.65 -22.4335 -28.9226
147 1 -4.65 -24.0665 -28.9226
148 2 -1.55 -23.25 -29.5
149 1 -1.55 -22.4335 -28.9226
150 1 -1.55 -24.0665 -28.9226
151 2 1.55 -23.25 -29.5
152 1 1.55 -22.4335 -28.9226
153 1 1.55 -24.0665 -28.9226
154 2 4.65 -23.25 -29.5
155 1 4.65 -22.4335 -28.9226
156 1 4.65 -24.0665 -28.9226
157 2 7.75 -23.25 -29.5
158 1 7.75 -22.4335 -28.9226
159 1 7.75 -24.0665 -28.9226
160 2 10.85 -23.25 -29.5
161 1 10.85 -22.4335 -28.9226
162 1 10.85 -24.0665 -28.9226
163 2 13.95 -23.25 -29.5
164 1 13.95 -22.4335 -28.9226
165 1 13.95 -24.0665 -28.9226
166 2 17.05 -23.25 -29.5
167 1 17.05 -22.4335 -28.9226
168 1 17.05 -24.0665 -28.9226
169 2 20.15 -23.25 -29.5
170 1 20.15 -22.4335 -28.9226
171 1 20.15 -24.0665 -28.9226
172 2 23.25 -23.25 -29.5
173 1 23.25 -22.4335 -28.9226
174 1 23.25 -24.0665 -28.9226
175 2 26.35 -23.25 -29.5
176 1 26.35 -22.4335 -28.9226
177 1 26.35 -24.0665 -28.9226
178 2 29.45 -23.25 -29.5
179 1 29.45 -22.4335 -28.9226
180 1 29.45 -24.0665 -28.9226
181 2 -29.45 -20.15 -29.5
182 1 -29.45 -19.3335 -28.9226
183 1 -29.45 -20.9665 -28.9226
184 2 -26.35 -20.15 -29.5
185 1 -26.35 -19.3335 -28.9226
186 1 -26.35 -20.9665 -28.9226
187 2 -23.25 -20.15 -29.5
188 1 -23.25 -19.3335 -28.9226
189 1 -23.25 -20.9665 -28.9226
190 2 -20.15 -20.15 -29.5
191 1 -20.15 -19.3335 -28.9226
192 1 -20.15 -20.9665 -28.9226
193 2 -17.05 -20.15 -29.5
194 1 -17.05 -19.3335 -28.9226
195 1 -17.05 -20.9665 -28.9226
196 2 -13.95 -20.15 -29.5
197 1 -13.95 -19.3335 -28.9226
198 1 -13.95 -20.9665 -28.9226
199 2 -10.85 -20.15 -29.5
200 1 -10.85 -19.3335 -28.9226
201 1 -10.85 -20.9665 -28.9226
202 2 -7.75 -20.15 -29.5
203 1 -7.75 -19.3335 -28.9226
204 1 -7.75 -20.9665 -28.9226
205 2 -4.65 -20.15 -29.5
206 1 -4.65 -19.3335 -28.9226
207 1 -4.65 -20.9665 -28.9226
208 2 -1.55 -20.15 -29.5
209 1 -1.55 -19.3335 -28.9226
210 1 -1.55 -20.9665 -28.9226
211 2 1.55 -20.15 -29.5
212 1 1.55 -19.3335 -28.9226
213 1 1.55 -20.9665 -28.9226
214 2 4.65 -20.15 -29.5
215 1 4.65 -19.3335 -28.9226
216 1 4.65 -20.9665 -28.9226
217 2 7.75 -20.15 -29.5
218 1 7.75 -19.3335 -28.9226
219 1 7.75 -20.9665 -28.9226
220 2 10.85 -20.15 -29.5
221 1 10.85 -19.3335 -28.9226
222 1 10.85 -20.9665 -28.9226
223 2 13.95 -20.15 -29.5
224 1 13.95 -19.3335 -28.9226
225 1 13.95 -20.9665 -28.9226
226 2 17.05 -20.15 -29.5
227 1 17.05 -19.3335 -28.9226
228 1 17.05 -20.9665 -28.9226
229 2 20.15 -20.15 -29.5
230 1 20.15 -19.3335 -28.9226
231 1 20.15 -20.9665 -28.9226
232 2 23.25 -20.15 -29.5
233 1 23.25 -19.3335 -28.9226
234 1 23.25 -20.9665 -28.9226
235 2 26.35 -20.15 -29.5
236 1 26.35 -19.3335 -28.9226
237 1 26.35 -20.9665 -28.9226
238 2 29.45 -20.15 -29.5
239 1 29.45 -19.3335 -28.9226
240 1 29.45 -20.9665 -28.9226
241 2 -29.45 -17.05 -29.5
242 1 -29.45 -16.2335 -28.9226
243 1 -29.45 -17.8665 -28.9226
244 2 -26.35 -17.05 -29.5
245 1 -26.35 -16.2335 -28.9226
246 1 -26.35 -17.8665 -28.9226
247 2 -23.25 -17.05 -29.5
248 1 -23.25 -16.2335 -28.9226
249 1 -23.25 -17.8665 -28.9226
250 2 -20.15 -17.05 -29.5
251 1 -20.15 -16.2335 -28.9226
252 1 -20.15 -17.8665 -28.9226
253 2 -17.05 -17.05 -29.5
254 1 -17.05 -16.2335 -28.9226
255 1 -17.05 -17.8665 -28.9226
256 2 -13.95 -17.05 -29.5
257 1 -13.95 -16.2335 -28.9226
258 1 -13.95 -17.8665 -28.9226
259 2 -10.85 -17.05 -29.5
260 1 -10.85 -16.2335 -28.9226
261 1 -10.85 -17.8665 -28.9226
262 2 -7.75 -17.05 -29.5
263 1 -7.75 -16.2335 -28.9226
264 1 -7.75 -17.8665 -28.9226
265 2 -4.65 -17.05 -29.5
266 1 -4.65 -16.2335 -28.9226
267 1 -4.65 -17.8665 -28.9226
268 2 -1.55 -17.05 -29.5
269 1 -1.55 -16.2335 -28.9226
270 1 -1.55 -17.8665 -28.9226
271 2 1.55 -17.05 -29.5
272 1 1.55 -16.2335 -28.9226
273 1 1.55 -17.8665 -28.9226
274 2 4.65 -17.05 -29.5
275 1 4.65 -16.2335 -28.9226
276 1 4.65 -17.8665 -28.9226
277 2 7.75 -17.05 -29.5
278 1 7.75 -16.2335 -28.9226
279 1 7.75 -17.8665 -28.9226
280 2 10.85 -17.05 -29.5
281 1 10.85 -16.2335 -28.9226
282 1 10.85 -17.8665 -28.9226
283 2 13.95 -17.05 -29.5
284 1 13.95 -16.2335 -28.9226
285 1 13.95 -17.8665 -28.9226
286 2 17.05 -17.05 -29.5
287 1 17.05 -16.2335 -28.9226
288 1 17.05 -17.8665 -28.9226
289 2 20.15 -17.05 -29.5
290 1 20.15 -16.2335 -28.9226
291 1 20.15 -17.8665 -28.9226
292 2 23.25 -17.05 -29.5
293 1 23.25 -16.2335 -28.9226
294 1 23.25 -17.8665 -28.9226
295 2 26.35 -17.05 -29.5
296 1 26.35 -16.2335 -28.9226
297 1 26.35 -17.8665 -28.9226
298 2 29.45 -17.05 -29.5
299 1 29.45 -16.2335 -28.9226
300 1 29.45 -17.8665 -28.9226
301 2 -29.45 -13.95 -29.5
302 1 -29.45 -13.1335 -28.9226
303 1 -29.45 -14.7665 -28.9226
304 2 -26.35 -13.95 -29.5
305 1 -26.35 -13.1335 -28.9226
306 1 -26.35 -14.7665 -28.9226
307 2 -23.25 -13.95 -29.5
308 1 -23.25 -13.1335 -28.9226
309 1 -23.25 -14.7665 -28.9226
310 2 -20.15 -13.95 -29.5
311 1 -20.15 -13.1335 -28.9226
312 1 -20.15 -14.7665 -28.9226
313 2 -17.05 -13.95 -29.5
314 1 -17.05 -13.1335 -28.9226
315 1 -17.05 -14.7665 -28.9226
316 2 -13.95 -13.95 -29.5
317 1 -13.95 -13.1335 -28.9226
318 1 -13.95 -14.7665 -28.9226
319 2 -10.85 -13.95 -29.5
320 1 -10.85 -13.1335 -28.9226
321 1 -10.85 -14.7665 -28.9226
322 2 -7.75 -13.95 -29.5
323 1 -7.75 -13.1335 -28.9226
324 1 -7.75 -14.7665 -28.9226
325 2 -4.65 -13.95 -29.5
326 1 -4.65 -13.1335 -28.9226
327 1 -4.65 -14.7665 -28.9226
328 2 -1.55 -13.95 -29.5
329 1 -1.55 -13.1335 -28.9226
330 1 -1.55 -14.7665 -28.9226
331 2 1.55 -13.95 -29.5
332 1 1.55 -13.1335 -28.9226
333 1 1.55 -14.7665 -28.9226
334 2 4.65 -13.95 -29.5
335 1 4.65 -13.1335 -28.9226
336 1 4.65 -14.7665 -28.9226
337 2 7.75 -13.95 -29.5
338 1 7.75 -13.1335 -28.9226
339 1 7.75 -14.7665 -28.9226
340 2 10.85 -13.95 -29.5
341 1 10.85 -13.1335 -28.9226
342 1 10.85 -14.7665 -28.9226
343 2 13.95 -13.95 -29.5
344 1 13.95 -13.1335 -28.9226
345 1 13.95 -14.7665 -28.9226
346 2 17.05 -13.95 -29.5
347 1 17.05 -13.1335 -28.9226
348 1 17.05 -14.7665 -28.9226
349 2 20.15 -13.95 -29.5
350 1 20.15 -13.1335 -28.9226
351 1 20.15 -14.7665 -28.9226
352 2 23.25 -13.95 -29.5
353 1 23.25 -13.1335 -28.9226
354 1 23.25 -14.7665 -28.9226
355 2 26.35 -13.95 -29.5
356 1 26.35 -13.1335 -28.9226
357 1 26.35 -14.7665 -28.9226
358 2 29.45 -13.95 -29.5
359 1 29.45 -13.1335 -28.9226
360 1 29.45 -14.7665 -28.9226
361 2 -29.45 -10.85 -29.5
362 1 -29.45 -10.0335 -28.9226
363 1 -29.45 -11.6665 -28.9226
364 2 -26.35 -10.85 -29.5
365 1 -26.35 -10.0335 -28.9226
366 1 -26.35 -11.6665 -28.9226
367 2 -23.25 -10.85 -29.5
368 1 -23.25 -10.0335 -28.9226
369 1 -23.25 -11.6665 -28.9226
370 2 -20.15 -10.85 -29.5
371 1 -20.15 -10.0335 -28.9226
372 1 -20.15 -11.6665 -28.9226
373 2 -17.05 -10.85 -29.5
374 1 -17.05 -10.0335 -28.9226
375 1 -17.05 -11.6665 -28.9226
376 2 -13.95 -10.85 -29.5
377 1 -13.95 -10.0335 -28.9226
378 1 -13.95 -11.6665 -28.9226
379 2 -10.85 -10.85 -29.5
380 1 -10.85 -10.0335 -28.9226
381 1 -10.85 -11.6665 -28.9226
382 2 -7.75 -10.85 -29.5
383 1 -7.75 -10.0335 -28.9226
384 1 -7.75 -11.6665 -28.9226
385 2 -4.65 -10.85 -29.5
386 1 -4.65 -10.0335 -28.9226
387 1 -4.65 -11.6665 -28.9226
388 2 -1.55 -10.85 -29.5
389 1 -1.55 -10.0335 -28.9226
390 1 -1.55 -11.6665 -28.9226
391 2 1.55 -10.85 -29.5
392 1 1.55 -10.0335 -28.9226
393 1 1.55 -11.6665 -28.9226
394 2 4.65 -10.85 -29.5
395 1 4.65 -10.0335 -28.9226
396 1 4.65 -11.6665 -28.9226
397 2 7.75 -10.85 -29.5
398 1 7.75 -10.0335 -28.9226
399 1 7.75 -11.6665 -28.9226
400 2 10.85 -10.85 -29.5
401 1 10.85 -10.0335 -28.9226
402 1 10.85 -11.6665 -28.9226
403 2 13.95 -10.85 -29.5
404 1 13.95 -10.0335 -28.9226
405 1 13.95 -11.6665 -28.9226
406 2 17.05 -10.85 -29.5
407 1 17.05 -10.0335 -28.9226
408 1 17.05 -11.6665 -28.9226
409 2 20.15 -10.85 -29.5
410 1 20.15 -10.0335 -28.9226
411 1 20.15 -11.6665 -28.9226
412 2 23.25 -10.85 -29.5
413 1 23.25 -10.0335 -28.9226
414 1 23.25 -11.6665 -28.9226
415 2 26.35 -10.85 -29.5
416 1 26.35 -10.0335 -28.9226
417 1 26.35 -11.6665 -28.9226
418 2 29.45 -10.85 -29.5
419 1 29.45 -10.0335 -28.9226
420 1 29.45 -11.6665 -28.9226
421 2 -29.45 -7.75 -29.5
422 1 -29.45 -6.93351 -28.9226
423 1 -29.45 -8.56649 -28.9226
424 2 -26.35 -7.75 -29.5
425 1 -26.35 -6.93351 -28.9226
426 1 -26.35 -8.56649 -28.9226
427 2 -23.25 -7.75 -29.5
428 1 -23.25 -6.93351 -28.9226
429 1 -23.25 -8.56649 -28.9226
430 2 -20.15 -7.75 -29.5
431 1 -20.15 -6.93351 -28.9226
432 1 -20.15 -8.56649 -28.9226
433 2 -17.05 -7.75 -29.5
434 1 -17.05 -6.93351 -28.9226
435 1 -17.05 -8.56649 -28.9226
436 2 -13.95 -7.75 -29.5
437 1 -13.95 -6.93351 -28.9226
438 1 -13.95 -8.56649 -28.9226
439 2 -10.85 -7.75 -29.5
440 1 -10.85 -6.93351 -28.9226
441 1 -10.85 -8.56649 -28.9226
442 2 -7.75 -7.75 -29.5
443 1 -7.75 -6.93351 -28.9226
444 1 -7.75 -8.56649 -28.9226
445 2 -4.65 -7.75 -29.5
446 1 -4.65 -6.93351 -28.9226
447 1 -4.65 -8.56649 -28.9226
448 2 -1.55 -7.75 -29.5
449 1 -1.55 -6.93351 -28.9226
450 1 -1.55 -8.56649 -28.9226
451 2 1.55 -7.75 -29.5
452 1 1.55 -6.93351 -28.9226
453 1 1.55 -8.56649 -28.9226
454 2 4.65 -7.75 -29.5
455 1 4.65 -6.93351 -28.9226
456 1 4.65 -8.56649 -28.9226
457 2 7.75 -7.75 -29.5
458 1 7.75 -6.93351 -28.9226
459 1 7.75 -8.56649 -28.9226
460 2 10.85 -7.75 -29.5
461 1 10.85 -6.93351 -28.9226
462 1 10.85 -8.56649 -28.9226
463 2 13.95 -7.75 -29.5
464 1 13.95 -6.93351 -28.9226
465 1 13.95 -8.56649 -28.9226
466 2 17.05 -7.75 -29.5
467 1 17.05 -6.93351 -28.9226
468 1 17.05 -8.56649 -28.9226
469 2 20.15 -7.75 -29.5
470 1 20.15 -6.93351 -28.9226
471 1 20.15 -8.56649 -28.9226
472 2 23.25 -7.75 -29.5
473 1 23.25 -6.93351 -28.9226
474 1 23.25 -8.56649 -28.9226
475 2 26.35 -7.75 -29.5
476 1 26.35 -6.93351 -28.9226
477 1 26.35 -8.56649 -28.9226
478 2 29.45 -7.75 -29.5
479 1 29.45 -6.93351 -28.9226
480 1 29.45 -8.56649 -28.9226
481 2 -29.45 -4.65 -29.5
482 1 -29.45 -3.83351 -28.9226
483 1 -29.45 -5.46649 -28.9226
484 2 -26.35 -4.65 -29.5
485 1 -26.35 -3.83351 -28.9226
486 1 -26.35 -5.46649 -28.9226
487 2 -23.25 -4.65 -29.5
488 1 -23.25 -3.83351 -28.9226
489 1 -23.25 -5.46649 -28.9226
490 2 -20.15 -4.65 -29.5
491 1 -20.15 -3.83351 -28.9226
492 1 -20.15 -5.46649 -28.9226
493 2 -17.05 -4.65 -29.5
494 1 -17.05 -3.83351 -28.9226
495 1 -17.05 -5.46649 -28.9226
496 2 -13.95 -4.65 -29.5
497 1 -13.95 -3.83351 -28.9226
498 1 -13.95 -5.46649 -28.9226
499 2 -10.85 -4.65 -29.5
500 1 -10.85 -3.83351 -28.9226
501 1 -10.85 -5.46649 -28.9226
502 2 -7.75 -4.65 -29.5
503 1 -7.75 -3.83351 -28.9226
504 1 -7.75 -5.46649 -28.9226
505 2 -4.65 -4.65 -29.5
506 1 -4.65 -3.83351 -28.9226
507 1 -4.65 -5.46649 -28.9226
508 2 -1.55 -4.65 -29.5
509 1 -1.55 -3.83351 -28.9226
510 1 -1.55 -5.46649 -28.9226
511 2 1.55 -4.65 -29.5
512 1 1.55 -3.83351 -28.9226
513 1 1.55 -5.46649 -28.9226
514 2 4.65 -4.65 -29.5
515 1 4.65 -3.83351 -28.9226
516 1 4.65 -5.46649 -28.9226
517 2 7.75 -4.65 -29.5
518 1 7.75 -3.83351 -28.9226
519 1 7.75 -5.46649 -28.9226
520 2 10.85 -4.65 -29.5
521 1 10.85 -3.83351 -28.9226
522 1 10.85 -5.46649 -28.9226
523 2 13.95 -4.65 -29.5
524 1 13.95 -3.83351 -28.9226
525 1 13.95 -5.46649 -28.9226
526 2 17.05 -4.65 -29.5
527 1 17.05 -3.83351 -28.9226
528 1 17.05 -5.46649 -28.9226
529 2 20.15 -4.65 -29.5
530 1 20.15 -3.83351 -28.9226
531 1 20.15 -5.46649 -28.9226
532 2 23.25 -4.65 -29.5
533 1 23.25 -3.83351 -28.9226
534 1 23.25 -5.46649 -28.9226
535 2 26.35 -4.65 -29.5
536 1 26.35 -3.83351 -28.9226
537 1 26.35 -5.46649 -28.9226
538 2 29.45 -4.65 -29.5
539 1 29.45 -3.83351 -28.9226
540 1 29.45 -5.46649 -28.9226
541 2 -29.45 -1.55 -29.5
542 1 -29.45 -0.73351 -28.9226
543 1 -29.45 -2.36649 -28.9226
544 2 -26.35 -1.55 -29.5
545 1 -26.35 -0.73351 -28.9226
546 1 -26.35 -2.36649 -28.9226
547 2 -23.25 -1.55 -29.5
548 1 -23.25 -0.73351 -28.9226
549 1 -23.25 -2.36649 -28.9226
550 2 -20.15 -1.55 -29.5
551 1 -20.15 -0.73351 -28.9226
552 1 -20.15 -2.36649 -28.9226
553 2 -17.05 -1.55 -29.5
554 1 -17.05 -0.73351 -28.9226
555 1 -17.05 -2.36649 -28.9226
556 2 -13.95 -1.55 -29.5
557 1 -13.95 -0.73351 -28.9226
558 1 -13.95 -2.36649 -28.9226
559 2 -10.85 -1.55 -29.5
560 1 -10.85 -0.73351 -28.9226
561 1 -10.85 -2.36649 -28.9226
562 2 -7.75 -1.55 -29.5
563 1 -7.75 -0.73351 -28.9226
564 1 -7.75 -2.36649 -28.9226
565 2 -4.65 -1.55 -29.5
566 1 -4.65 -0.73351 -28.9226
567 1 -4.65 -2.36649 -28.9226
568 2 -1.55 -1.55 -29.5
569 1 -1.55 -0.73351 -28.9226
570 1 -1.55 -2.36649 -28.9226
571 2 1.55 -1.55 -29.5
572 1 1.55 -0.73351 -28.9226
573 1 1.55 -2.36649 -28.9226
574 2 4.65 -1.55 -29.5
575 1 4.65 -0.73351 -28.9226
576 1 4.65 -2.36649 -28.9226
577 2 7.75 -1.55 -29.5
578 1 7.75 -0.73351 -28.9226
579 1 7.75 -2.36649 -28.9226
580 2 10.85 -1.55 -29.5
581 1 10.85 -0.73351 -28.9226
582 1 10.85 -2.36649 -28.9226
583 2 13.95 -1.55 -29.5
584 1 13.95 -0.73351 -28.9226
585 1 13.95 -2.36649 -28.9226
586 2 17.05 -1.55 -29.5
587 1 17.05 -0.73351 -28.9226
588 1 17.05 -2.36649 -28.9226
589 2 20.15 -1.55 -29.5
590 1 20.15 -0.73351 -28.9226
591 1 20.15 -2.36649 -28.9226
592 2 23.25 -1.55 -29.5
593 1 23.25 -0.73351 -28.9226
594 1 23.25 -2.36649 -28.9226
595 2 26.35 -1.55 -29.5
596 1 26.35 -0.73351 -28.9226
597 1 26.35 -2.36649 -28.9226
598 2 29.45 -1.55 -29.5
599 1 29.45 -0.73351 -28.9226
600 1 29.45 -2.36649 -28.9226
601 2 -29.45 1.55 -29.5
602 1 -29.45 2.36649 -28.9226
603 1 -29.45 0.73351 -28.9226
604 2 -26.35 1.55 -29.5
605 1 -26.35 2.36649 -28.9226
606 1 -26.35 0.73351 -28.9226
607 2 -23.25 1.55 -29.5
608 1 -23.25 2.36649 -28.9226
609 1 -23.25 0.73351 -28.9226
610 2 -20.15 1.55 -29.5
611 1 -20.15 2.36649 -28.9226
612 1 -20.15 0.73351 -28.9226
613 2 -17.05 1.55 -29.5
614 1 -17.05 2.36649 -28.9226
615 1 -17.05 0.73351 -28.9226
616 2 -13.95 1.55 -29.5
617 1 -13.95 2.36649 -28.9226
618 1 -13.95 0.73351 -28.9226
619 2 -10.85 1.55 -29.5
620 1 -10.85 2.36649 -28.9226
621 1 -10.85 0.73351 -28.9226
622 2 -7.75 1.55 -29.5
623 1 -7.75 2.36649 -28.9226
624 1 -7.75 0.73351 -28.9226
625 2 -4.65 1.55 -29.5
626 1 -4.65 2.36649 -28.9226
627 1 -4.65 0.73351 -28.9226
628 2 -1.55 1.55 -29.5
629 1 -1.55 2.36649 -28.9226
630 1 -1.55 0.73351 -28.9226
631 2 1.55 1.55 -29.5
632 1 1.55 2.36649 -28.9226
633 1 1.55 0.73351 -28.9226
634 2 4.65 1.55 -29.5
635 1 4.65 2.36649 -28.9226
636 1 4.65 0.73351 -28.9226
637 2 7.75 1.55 -29.5
638 1 7.75 2.36649 -28.9226
639 1 7.75 0.73351 -28.9226
640 2 10.85 1.55 -29.5
641 1 10.85 2.36649 -28.9226
642 1 10.85 0.73351 -28.9226
643 2 13.95 1.55 -29.5
644 1 13.95 2.36649 -28.9226
645 1 13.95 0.73351 -28.9226
646 2 17.05 1.55 -29.5
647 1 17.05 2.36649 -28.9226
648 1 17.05 0.73351 -28.9226
649 2 20.15 1.55 -29.5
650 1 20.15 2.36649 -28.9226
651 1 20.15 0.73351 -28.9226
652 2 23.25 1.55 -29.5
653 1 23.25 2.36649 -28.9226
654 1 23.25 0.73351 -28.9226
655 2 26.35 1.55 -29.5
656 1 26.35 2.36649 -28.9226
657 1 26.35 0.73351 -28.9226
658 2 29.45 1.55 -29.5
659 1 29.45 2.36649 -28.9226
660 1 29.45 0.73351 -28.9226
661 2 -29.45 4.65 -29.5
662 1 -29.45 5.46649 -28.9226
663 1 -29.45 3.83351 -28.9226
664 2 -26.35 4.65 -29.5
665 1 -26.35 5.46649 -28.9226
666 1 -26.35 3.83351 -28.9226
667 2 -23.25 4.65 -29.5
668 1 -23.25 5.46649 -28.9226
669 1 -23.25 3.83351 -28.9226
670 2 -20.15 4.65 -29.5
671 1 -20.15 5.46649 -28.9226
672 1 -20.15 3.83351 -28.9226
673 2 -17.05 4.65 -29.5
674 1 -17.05 5.46649 -28.9226
675 1 -17.05 3.83351 -28.9226
676 2 -13.95 4.65 -29.5
677 1 -13.95 5.46649 -28.9226
678 1 -13.95 3.83351 -28.9226
679 2 -10.85 4.65 -29.5
680 1 -10.85 5.46649 -28.9226
681 1 -10.85 3.83351 -28.9226
682 2 -7.75 4.65 -29.5
683 1 -7.75 5.46649 -28.9226
684 1 -7.75 3.83351 -28.9226
685 2 -4.65 4.65 -29.5
686 1 -4.65 5.46649 -28.9226
687 1 -4.65 3.83351 -28.9226
688 2 -1.55 4.65 -29.5
689 1 -1.55 5.46649 -28.9226
690 1 -1.55 3.83351 -28.9226
691 2 1.55 4.65 -29.5
692 1 1.55 5.46649 -28.9226
693 1 1.55 3.83351 -28.9226
694 2 4.65 4.65 -29.5
695 1 4.65 5.46649 -28.9226
696 1 4.65 3.83351 -28.9226
697 2 7.75 4.65 -29.5
698 1 7.75 5.46649 -28.9226
699 1 7.75 3.83351 -28.9226
700 2 10.85 4.65 -29.5
701 1 10.85 5.46649 -28.9226
702 1 10.85 3.83351 -28.9226
703 2 13.95 4.65 -29.5
704 1 13.95 5.46649 -28.9226
705 1 13.95 3.83351 -28.9226
706 2 17.05 4.65 -29.5
707 1 17.05 5.46649 -28.9226
708 1 17.05 3.83351 -28.9226
709 2 20.15 4.65 -29.5
710 1 20.15 5.46649 -28.9226
711 1 20.15 3.83351 -28.9226
712 2 23.25 4.65 -29.5
713 1 23.25 5.46649 -28.9226
714 1 23.25 3.83351 -28.9226
715 2 26.35 4.65 -29.5
716 1 26.35 5.46649 -28.9226
717 1 26.35 3.83351 -28.9226
718 2 29.45 4.65 -29.5
719 1 29.45 5.46649 -28.9226
720 1 29.45 3.83351 -28.9226
721 2 -29.45 7.75 -29.5
722 1 -29.45 8.56649 -28.9226
723 1 -29.45 6.93351 -28.9226
724 2 -26.35 7.75 -29.5
725 1 -26.35 8.56649 -28.9226
726 1 -26.35 6.93351 -28.9226
727 2 -23.25 7.75 -29.5
728 1 -23.25 8.56649 -28.9226
729 1 -23.25 6.93351 -28.9226
730 2 -20.15 7.75 -29.5
731 1 -20.15 8.56649 -28.9226
732 1 -20.15 6.93351 -28.9226
733 2 -17.05 7.75 -29.5
734 1 -17.05 8.56649 -28.9226
735 1 -17.05 6.93351 -28.9226
736 2 -13.95 7.75 -29.5
737 1 -13.95 8.56649 -28.9226
738 1 -13.95 6.93351 -28.9226
739 2 -10.85 7.75 -29.5
740 1 -10.85 8.56649 -28.9226
741 1 -10.85 6.93351 -28.9226
742 2 -7.75 7.75 -29.5
743 1 -7.75 8.56649 -28.9226
744 1 -7.75 6.93351 -28.9226
745 2 -4.65 7.75 -29.5
746 1 -4.65 8.56649 -28.9226
747 1 -4.65 6.93351 -28.9226
748 2 -1.55 7.75 -29.5
749 1 -1.55 8.56649 -28.9226
750 1 -1.55 6.93351 -28.9226
751 2 1.55 7.75 -29.5
752 1 1.55 8.56649 -28.9226
753 1 1.55 6.93351 -28.9226
754 2 4.65 7.75 -29.5
755 1 4.65 8.56649 -28.9226
756 1 4.65 6.93351 -28.9226
757 2 7.75 7.75 -29.5
758 1 7.75 8.56649 -28.9226
759 1 7.75 6.93351 -28.9226
760 2 10.85 7.75 -29.5
761 1 10.85 8.56649 -28.9226
762 1 10.85 6.93351 -28.9226
763 2 13.95 7.75 -29.5
764 1 13.95 8.56649 -28.9226
765 1 13.95 6.93351 -28.9226
766 2 17.05 7.75 -29.5
767 1 17.05 8.56649 -28.9226
768 1 17.05 6.93351 -28.9226
769 2 20.15 7.75 -29.5
770 1 20.15 8.56649 -28.9226
771 1 20.15 6.93351 -28.9226
772 2 23.25 7.75 -29.5
773 1 23.25 8.56649 -28.9226
774 1 23.25 6.93351 -28.9226
775 2 26.35 7.75 -29.5
776 1 26.35 8.56649 -28.9226
777 1 26.35 6.93351 -28.9226
778 2 29.45 7.75 -29.5
779 1 29.45 8.56649 -28.9226
780 1 29.45 6.93351 -28.9226
781 2 -29.45 10.85 -29.5
782 1 -29.45 11.6665 -28.9226
783 1 -29.45 10.0335 -28.9226
784 2 -26.35 10.85 -29.5
785 1 -26.35 11.6665 -28.9226
786 1 -26.35 10.0335 -28.9226
787 2 -23.25 10.85 -29.5
788 1 -23.25 11.6665 -28.9226
789 1 -23.25 10.0335 -28.9226
790 2 -20.15 10.85 -29.5
791 1 -20.15 11.6665 -28.9226
792 1 -20.15 10.0335 -28.9226
793 2 -17.05 10.85 -29.5
794 1 -17.05 11.6665 -28.9226
795 1 -17.05 10.0335 -28.9226
796 2 -13.95 10.85 -29.5
797 1 -13.95 11.6665 -28.9226
798 1 -13.95 10.0335 -28.9226
799 2 -10.85 10.85 -29.5
800 1 -10.85 11.6665 -28.9226
801 1 -10.85 10.0335 -28.9226
802 2 -7.75 10.85 -29.5
803 1 -7.75 11.6665 -28.9226
804 1 -7.75 10.0335 -28.9226
805 2 -4.65 10.85 -29.5
806 1 -4.65 11.6665 -28.9226
807 1 -4.65 10.0335 -28.9226
808 2 -1.55 10.85 -29.5
809 1 -1.55 11.6665 -28.9226
810 1 -1.55 10.0335 -28.9226
811 2 1.55 10.85 -29.5
812 1 1.55 11.6665 -28.9226
813 1 1.55 10.0335 -28.9226
814 2 4.65 10.85 -29.5
815 1 4.65 11.6665 -28.9226
816 1 4.65 10.0335 -28.9226
817 2 7.75 10.85 -29.5
818 1 7.75 11.6665 -28.9226
819 1 7.75 10.0335 -28.9226
820 2 10.85 10.85 -29.5
821 1 10.85 11.6665 -28.9226
822 1 10.85 10.0335 -28.9226
823 2 13.95 10.85 -29.5
824 1 13.95 11.6665 -28.9226
825 1 13.95 10.0335 -28.9226
826 2 17.05 10.85 -29.5
827 1 17.05 11.6665 -28.9226
828 1 17.05 10.0335 -28.9226
829 2 20.15 10.85 -29.5
830 1 20.15 11.6665 -28.9226
831 1 20.15 10.0335 -28.9226
832 2 23.25 10.85 -29.5
833 1 23.25 11.6665 -28.9226
834 1 23.25 10.0335 -28.9226
835 2 26.35 10.85 -29.5
836 1 26.35 11.6665 -28.9226
837 1 26.35 10.0335 -28.9226
838 2 29.45 10.85 -29.5
839 1 29.45 11.6665 -28.9226
840 1 29.45 10.0335 -28.9226
841 2 -29.45 13.95 -29.5
842 1 -29.45 14.7665 -28.9226
843 1 -29.45 13.1335 -28.9226
844 2 -26.35 13.95 -29.5
845 1 -26.35 14.7665 -28.9226
846 1 -26.35 13.1335 -28.9226
847 2 -23.25 13.95 -29.5
848 1 -23.25 14.7665 -28.9226
849 1 -23.25 13.1335 -28.9226
850 2 -20.15 13.95 -29.5
851 1 -20.15 14.7665 -28.9226
852 1 -20.15 13.1335 -28.9226
853 2 -17.05 13.95 -29.5
854 1 -17.05 14.7665 -28.9226
855 1 -17.05 13.1335 -28.9226
856 2 -13.95 13.95 -29.5
857 1 -13.95 14.7665 -28.9226
858 1 -13.95 13.1335 -28.9226
859 2 -10.85 13.95 -29.5
860 1 -10.85 14.7665 -28.9226
861 1 -10.85 13.1335 -28.9226
862 2 -7.75 13.95 -29.5
863 1 -7.75 14.7665 -28.9226
864 1 -7.75 13.1335 -28.9226
865 2 -4.65 13.95 -29.5
866 1 -4.65 14.7665 -28.9226
867 1 -4.65 13.1335 -28.9226
868 2 -1.55 13.95 -29.5
869 1 -1.55 14.7665 -28.9226
870 1 -1.55 13.1335 -28.9226
871 2 1.55 13.95 -29.5
872 1 1.55 14.7665 -28.9226
873 1 1.55 13.1335 -28.9226
874 2 4.65 13.95 -29.5
875 1 4.65 14.7665 -28.9226
876 1 4.65 13.1335 -28.9226
877 2 7.75 13.95 -29.5
878 1 7.75 14.7665 -28.9226
879 1 7.75 13.1335 -28.9226
880 2 10.85 13.95 -29.5
881 1 10.85 14.7665 -28.9226
882 1 10.85 13.1335 -28.9226
883 2 13.95 13.95 -29.5
884 1 13.95 14.7665 -28.9226
885 1 13.95 13.1335 -28.9226
886 2 17.05 13.95 -29.5
887 1 17.05 14.7665 -28.9226
888 1 17.05 13.1335 -28.9226
889 2 20.15 13.95 -29.5
890 1 20.15 14.7665 -28.9226
891 1 20.15 13.1335 -28.9226
892 2 23.25 13.95 -29.5
893 1 23.25 14.7665 -28.9226
894 1 23.25 13.1335 -28.9226
895 2 26.35 13.95 -29.5
896 1 26.35 14.7665 -28.9226
897 1 26.35 13.1335 -28.9226
898 2 29.45 13.95 -29.5
899 1 29.45 14.7665 -28.9226
900 1 29.45 13.1335 -28.9226
901 2 -29.45 17.05 -29.5
902 1 -29.45 17.8665 -28.9226
903 1 -29.45 16.2335 -28.9226
904 2 -26.35 17.05 -29.5
905 1 -26.35 17.8665 -28.9226
906 1 -26.35 16.2335 -28.9226
907 2 -23.25 17.05 -29.5
908 1 -23.25 17.8665 -28.9226
909 1 -23.25 16.2335 -28.9226
910 2 -20.15 17.05 -29.5
911 1 -20.15 17.8665 -28.9226
912 1 -20.15 16.2335 -28.9226
913 2 -17.05 17.05 -29.5
914 1 -17.05 17.8665 -28.9226
915 1 -17.05 16.2335 -28.9226
916 2 -13.95 17.05 -29.5
917 1 -13.95 17.8665 -28.9226
918 1 -13.95 16.2335 -28.9226
919 2 -10.85 17.05 -29.5
920 1 -10.85 17.8665 -28.9226
921 1 -10.85 16.2335 -28.9226
922 2 -7.75 17.05 -29.5
923 1 -7.75 17.8665 -28.9226
924 1 -7.75 16.2335 -28.9226
925 2 -4.65 17.05 -29.5
926 1 -4.65 17.8665 -28.9226
927 1 -4.65 16.2335 -28.9226
928 2 -1.55 17.05 -29.5
929 1 -1.55 17.8665 -28.9226
930 1 -1.55 16.2335 -28.9226
931 2 1.55 17.05 -29.5
932 1 1.55 17.8665 -28.9226
933 1 1.55 16.2335 -28.9226
934 2 4.65 17.05 -29.5
935 1 4.65 17.8665 -28.9226
936 1 4.65 16.2335 -28.9226
937 2 7.75 17.05 -29.5
938 1 7.75 17.8665 -28.9226
939 1 7.75 16.2335 -28.9226
940 2 10.85 17.05 -29.5
941 1 10.85 17.8665 -28.9226
942 1 10.85 16.2335 -28.9226
943 2 13.95 17.05 -29.5
944 1 13.95 17.8665 -28.9226
945 1 13.95 16.2335 -28.9226
946 2 17.05 17.05 -29.5
947 1 17.05 17.8665 -28.9226
948 1 17.05 16.2335 -28.9226
949 2 20.15 17.05 -29.5
950 1 20.15 17.8665 -28.9226
951 1 20.15 16.2335 -28.9226
952 2 23.25 17.05 -29.5
953 1 23.25 17.8665 -28.9226
954 1 23.25 16.2335 -28.9226
955 2 26.35 17.05 -29.5
956 1 26.35 17.8665 -28.9226
957 1 26.35 16.2335 -28.9226
958 2 29.45 17.05 -29.5
959 1 29.45 17.8665 -28.9226
960 1 29.45 16.2335 -28.9226
961 2 -29.45 20.15 -29.5
962 1 -29.45 20.9665 -28.9226
963 1 -29.45 19.3335 -28.9226
964 2 -26.35 20.15 -29.5
965 1 -26.35 20.9665 -28.9226
966 1 -26.35 19.3335 -28.9226
967 2 -23.25 20.15 -29.5
968 1 -23.25 20.9665 -28.9226
969 1 -23.25 19.3335 -28.9226
970 2 -20.15 20.15 -29.5
971 1 -20.15 20.9665 -28.9226
972 1 -20.15 19.3335 -28.9226
973 2 -17.05 20.15 -29.5
974 1 -17.05 20.9665 -28.9226
975 1 -17.05 19.3335 -28.9226
976 2 -13.95 20.15 -29.5
977 1 -13.95 20.9665 -28.9226
978 1 -13.95 19.3335 -28.9226
979 2 -10.85 20.15 -29.5
980 1 -10.85 20.9665 -28.9226
981 1 -10.85 19.3335 -28.9226
982 2 -7.75 20.15 -29.5
983 1 -7.75 20.9665 -28.9226
984 1 -7.75 19.3335 -28.9226
985 2 -4.65 20.15 -29.5
986 1 -4.65 20.9665 -28.9226
987 1 -4.65 19.3335 -28.9226
988 2 -1.55 20.15 -29.5
989 1 -1.55 20.9665 -28.9226
990 1 -1.55 19.3335 -28.9226
991 2 1.55 20.15 -29.5
992 1 1.55 20.9665 -28.9226
993 1 1.55 19.3335 -28.9226
994 2 4.65 20.15 -29.5
995 1 4.65 20.9665 -28.9226
996 1 4.65 19.3335 -28.9226
997 2 7.75 20.15 -29.5
998 1 7.75 20.9665 -28.9226
999 1 7.75 19.3335 -28.9226
1000 2 10.85 20.15 -29.5
1001 1 10.85 20.9665 -28.9226
1002 1 10.85 19.3335 -28.9226
1003 2 13.95 20.15 -29.5
1004 1 13.95 20.9665 -28.9226
1005 1 13.95 19.3335 -28.9226
1006 2 17.05 20.15 -29.5
1007 1 17.05 20.9665 -28.9226
1008 1 17.05 19.3335 -28.9226
1009 2 20.15 20.15 -29.5
1010 1 20.15 20.9665 -28.9226
1011 1 20.15 19.3335 -28.9226
1012 2 23.25 20.15 -29.5
1013 1 23.25 20.9665 -28.9226
1014 1 23.25 19.3335 -28.9226
1015 2 26.35 20.15 -29.5
1016 1 26.35 20.9665 -28.9226
1017 1 26.35 19.3335 -28.9226
1018 2 29.45 20.15 -29.5
1019 1 29.45 20.9665 -28.9226
1020 1 29.45 19.3335 -28.9226
1021 2 -29.45 23.25 -29.5
1022 1 -29.45 24.0665 -28.9226
1023 1 -29.45 22.4335 -28.9226
1024 2 -26.35 23.25 -29.5
1025 1 -26.35 24.0665 -28.9226
1026 1 -26.35 22.4335 -28.9226
1027 2 -23.25 23.25 -29.5
1028 1 -23.25 24.0665 -28.9226
1029 1 -23.25 22.4335 -28.9226
1030 2 -20.15 23.25 -29.5
1031 1 -20.15 24.0665 -28.9226
1032 1 -20.15 22.4335 -28.9226
1033 2 -17.05 23.25 -29.5
1034 1 -17.05 24.0665 -28.9226
1035 1 -17.05 22.4335 -28.9226
1036 2 -13.95 23.25 -29.5
1037 1 -13.95 24.0665 -28.9226
1038 1 -13.95 22.4335 -28.9226
1039 2 -10.85 23.25 -29.5
1040 1 -10.85 24.0665 -28.9226
1041 1 -10.85 22.4335 -28.9226
1042 2 -7.75 23.25 -29.5
1043 1 -7.75 24.0665 -28.9226
1044 1 -7.75 22.4335 -28.9226
1045 2 -4.65 23.25 -29.5
1046 1 -4.65 24.0665 -28.9226
1047 1 -4.65 22.4335 -28.9226
1048 2 -1.55 23.25 -29.5
1049 1 -1.55 24.0665 -28.9226
1050 1 -1.55 22.4335 -28.9226
1051 2 1.55 23.25 -29.5
1052 1 1.55 24.0665 -28.9226
1053 1 1.55 22.4335 -28.9226
1054 2 4.65 23.25 -29.5
1055 1 4.65 24.0665 -28.9226
1056 1 4.65 22.4335 -28.9226
1057 2 7.75 23.25 -29.5
1058 1 7.75 24.0665 -28.9226
1059 1 7.75 22.4335 -28.9226
1060 2 10.85 23.25 -29.5
1061 1 10.85 24.0665 -28.9226
1062 1 10.85 22.4335 -28.9226
1063 2 13.95 23.25 -29.5
1064 1 13.95 24.0665 -28.9226