ITEM: TIMESTEP
0
ITEM: NUMBER OF ATOMS
24000
ITEM: BOX BOUNDS pp pp pp
-3.1000000000000000e+01 3.1000000000000000e+01
-3.1000000000000000e+01 3.1000000000000000e+01
-1.2400000000000000e+02 1.2400000000000000e+02
ITEM: ATOMS id type x y z
1 2 -29.45 -29.45 -29.5
2 1 -29.45 -28.693 -28.9141
3 1 -29.45 -30.207 -28.9141
4 2 -26.35 -29.45 -29.5
5 1 -26.35 -28.693 -28.9141
6 1 -26.35 -30.207 -28.9141
7 2 -23.25 -29.45 -29.5
8 1 -23.25 -28.693 -28.9141
9 1 -23.25 -30.207 -28.9141
10 2 -20.15 -29.45 -29.5
11 1 -20.15 -28.693 -28.9141
12 1 -20.15 -30.207 -28.9141
13 2 -17.05 -29.45 -29.5
14 1 -17.05 -28.693 -28.9141
15 1 -17.05 -30.207 -28.9141
16 2 -13.95 -29.45 -29.5
17 1 -13.95 -28.693 -28.9141
18 1 -13.95 -30.207 -28.9141
19 2 -10.85 -29.45 -29.5
20 1 -10.85 -28.693 -28.9141
21 1 -10.85 -30.207 -28.9141
22 2 -7.75 -29.45 -29.5
23 1 -7.75 -28.693 -28.9141
24 1 -7.75 -30.207 -28.9141
25 2 -4.65 -29.45 -29.5
26 1 -4.65 -28.693 -28.9141
27 1 -4.65 -30.207 -28.9141
28 2 -1.55 -29.45 -29.5
29 1 -1.55 -28.693 -28.9141
30 1 -1.55 -30.207 -28.9141
31 2 1.55 -29.45 -29.5
32 1 1.55 -28.693 -28.9141
33 1 1.55 -30.207 -28.9141
34 2 4.65 -29.45 -29.5
35 1 4.65 -28.693 -28.9141
36 1 4.65 -30.207 -28.9141
37 2 7.75 -29.45 -29.5
38 1 7.75 -28.693 -28.9141
39 1 7.75 -30.207 -28.9141
40 2 10.85 -29.45 -29.5
41 1 10.85 -28.693 -28.9141
42 1 10.85 -30.207 -28.9141
43 2 13.95 -29.45 -29.5
44 1 13.95 -28.693 -28.9141
45 1 13.95 -30.207 -28.9141
46 2 17.05 -29.45 -29.5
47 1 17.05 -28.693 -28.9141
48 1 17.05 -30.207 -28.9141
49 2 20.15 -29.45 -29.5
50 1 20.15 -28.693 -28.9141
51 1 20.15 -30.207 -28.9141
52 2 23.25 -29.45 -29.5
53 1 23.25 -28.693 -28.9141
54 1 23.25 -30.207 -28.9141
55 2 26.35 -29.45 -29.5
56 1 26.35 -28.693 -28.9141
57 1 26.35 -30.207 -28.9141
58 2 29.45 -29.45 -29.5
59 1 29.45 -28.693 -28.9141
60 1 29.45 -30.207 -28.9141
61 2 -29.45 -26.35 -29.5
62 1 -29.45 -25.593 -28.9141
63 1 -29.45 -27.107 -28.9141
64 2 -26.35 -26.35 -29.5
65 1 -26.35 -25.593 -28.9141
66 1 -26.35 -27.107 -28.9141
67 2 -23.25 -26.35 -29.5
68 1 -23.25 -25.593 -28.9141
69 1 -23.25 -27.107 -28.9141
70 2 -20.15 -26.35 -29.5
71 1 -20.15 -25.593 -28.9141
72 1 -20.15 -27.107 -28.9141
73 2 -17.05 -26.35 -29.5
74 1 -17.05 -25.593 -28.9141
75 1 -17.05 -27.107 -28.9141
76 2 -13.95 -26.35 -29.5
77 1 -13.95 -25.593 -28.9141
78 1 -13.95 -27.107 -28.9141
79 2 -10.85 -26.35 -29.5
80 1 -10.85 -25.593 -28.9141
81 1 -10.85 -27.107 -28.9141
82 2 -7.75 -26.35 -29.5
83 1 -7.75 -25.593 -28.9141
84 1 -7.75 -27.107 -28.9141
85 2 -4.65 -26.35 -29.5
86 1 -4.65 -25.593 -28.9141
87 1 -4.65 -27.107 -28.9141
88 2 -1.55 -26.35 -29.5
89 1 -1.55 -25.593 -28.9141
90 1 -1.55 -27.107 -28.9141
91 2 1.55 -26.35 -29.5
92 1 1.55 -25.593 -28.9141
93 1 1.55 -27.107 -28.9141
94 2 4.65 -26.35 -29.5
95 1 4.65 -25.593 -28.9141
96 1 4.65 -27.107 -28.9141
97 2 7.75 -26.35 -29.5
98 1 7.75 -25.593 -28.9141
99 1 7.75 -27.107 -28.9141
100 2 10.85 -26.35 -29.5
101 1 10.85 -25.593 -28.9141
102 1 10.85 -27.107 -28.9141
103 2 13.95 -26.35 -29.5
104 1 13.95 -25.593 -28.9141
105 1 13.95 -27.107 -28.9141
106 2 17.05 -26.35 -29.5
107 1 17.05 -25.593 -28.9141
108 1 17.05 -27.107 -28.9141
109 2 20.15 -26.35 -29.5
110 1 20.15 -25.593 -28.9141
111 1 20.15 -27.107 -28.9141
112 2 23.25 -26.35 -29.5
113 1 23.25 -25.593 -28.9141
114 1 23.25 -27.107 -28.9141
115 2 26.35 -26.35 -29.5
116 1 26.35 -25.593 -28.9141
117 1 26.35 -27.107 -28.9141
118 2 29.45 -26.35 -29.5
119 1 29.45 -25.593 -28.9141
120 1 29.45 -27.107 -28.9141
121 2 -29.45 -23.25 -29.5
122 1 -29.45 -22.493 -28.9141
123 1 -29.45 -24.007 -28.9141
124 2 -26.35 -23.25 -29.5
125 1 -26.35 -22.493 -28.9141
126 1 -26.35 -24.007 -28.9141
127 2 -23.25 -23.25 -29.5
128 1 -23.25 -22.493 -28.9141
129 1 -23.25 -24.007 -28.9141
130 2 -20.15 -23.25 -29.5
131 1 -20.15 -22.493 -28.9141
132 1 -20.15 -24.007 -28.9141
133 2 -17.05 -23.25 -29.5
134 1 -17.05 -22.493 -28.9141
135 1 -17.05 -24.007 -28.9141
136 2 -13.95 -23.25 -29.5
137 1 -13.95 -22.493 -28.9141
138 1 -13.95 -24.007 -28.9141
139 2 -10.85 -23.25 -29.5
140 1 -10.85 -22.493 -28.9141
141 1 -10.85 -24.007 -28.9141
142 2 -7.75 -23.25 -29.5
143 1 -7.75 -22.493 -28.9141
144 1 -7.75 -24.007 -28.9141
145 2 -4.65 -23.25 -29.5
146 1 -4.65 -22.493 -28.9141
147 1 -4.65 -24.007 -28.9141
148 2 -1.55 -23.25 -29.5
149 1 -1.55 -22.493 -28.9141
150 1 -1.55 -24.007 -28.9141
151 2 1.55 -23.25 -29.5
152 1 1.55 -22.493 -28.9141
153 1 1.55 -24.007 -28.9141
154 2 4.65 -23.25 -29.5
155 1 4.65 -22.493 -28.9141
156 1 4.65 -24.007 -28.9141
157 2 7.75 -23.25 -29.5
158 1 7.75 -22.493 -28.9141
159 1 7.75 -24.007 -28.9141
160 2 10.85 -23.25 -29.5
161 1 10.85 -22.493 -28.9141
162 1 10.85 -24.007 -28.9141
163 2 13.95 -23.25 -29.5
164 1 13.95 -22.493 -28.9141
165 1 13.95 -24.007 -28.9141
166 2 17.05 -23.25 -29.5
167 1 17.05 -22.493 -28.9141
168 1 17.05 -24.007 -28.9141
169 2 20.15 -23.25 -29.5
170 1 20.15 -22.493 -28.9141
171 1 20.15 -24.007 -28.9141
172 2 23.25 -23.25 -29.5
173 1 23.25 -22.493 -28.9141
174 1 23.25 -24.007 -28.9141
175 2 26.35 -23.25 -29.5
176 1 26.35 -22.493 -28.9141
177 1 26.35 -24.007 -28.9141
178 2 29.45 -23.25 -29.5
179 1 29.45 -22.493 -28.9141
180 1 29.45 -24.007 -28.9141
181 2 -29.45 -20.15 -29.5
182 1 -29.45 -19.393 -28.9141
183 1 -29.45 -20.907 -28.9141
184 2 -26.35 -20.15 -29.5
185 1 -26.35 -19.393 -28.9141
186 1 -26.35 -20.907 -28.9141
187 2 -23.25 -20.15 -29.5
188 1 -23.25 -19.393 -28.9141
189 1 -23.25 -20.907 -28.9141
190 2 -20.15 -20.15 -29.5
191 1 -20.15 -19.393 -28.9141
192 1 -20.15 -20.907 -28.9141
193 2 -17.05 -20.15 -29.5
194 1 -17.05 -19.393 -28.9141
195 1 -17.05 -20.907 -28.9141
196 2 -13.95 -20.15 -29.5
197 1 -13.95 -19.393 -28.9141
198 1 -13.95 -20.907 -28.9141
199 2 -10.85 -20.15 -29.5
200 1 -10.85 -19.393 -28.9141
201 1 -10.85 -20.907 -28.9141
202 2 -7.75 -20.15 -29.5
203 1 -7.75 -19.393 -28.9141
204 1 -7.75 -20.907 -28.9141
205 2 -4.65 -20.15 -29.5
206 1 -4.65 -19.393 -28.9141
207 1 -4.65 -20.907 -28.9141
208 2 -1.55 -20.15 -29.5
209 1 -1.55 -19.393 -28.9141
210 1 -1.55 -20.907 -28.9141
211 2 1.55 -20.15 -29.5
212 1 1.55 -19.393 -28.9141
213 1 1.55 -20.907 -28.9141
214 2 4.65 -20.15 -29.5
215 1 4.65 -19.393 -28.9141
216 1 4.65 -20.907 -28.9141
217 2 7.75 -20.15 -29.5
218 1 7.75 -19.393 -28.9141
219 1 7.75 -20.907 -28.9141
220 2 10.85 -20.15 -29.5
221 1 10.85 -19.393 -28.9141
222 1 10.85 -20.907 -28.9141
223 2 13.95 -20.15 -29.5
224 1 13.95 -19.393 -28.9141
225 1 13.95 -20.907 -28.9141
226 2 17.05 -20.15 -29.5
227 1 17.05 -19.393 -28.9141
228 1 17.05 -20.907 -28.9141
229 2 20.15 -20.15 -29.5
230 1 20.15 -19.393 -28.9141
231 1 20.15 -20.907 -28.9141
232 2 23.25 -20.15 -29.5
233 1 23.25 -19.393 -28.9141
234 1 23.25 -20.907 -28.9141
235 2 26.35 -20.15 -29.5
236 1 26.35 -19.393 -28.9141
237 1 26.35 -20.907 -28.9141
238 2 29.45 -20.15 -29.5
239 1 29.45 -19.393 -28.9141
240 1 29.45 -20.907 -28.9141
241 2 -29.45 -17.05 -29.5
242 1 -29.45 -16.293 -28.9141
243 1 -29.45 -17.807 -28.9141
244 2 -26.35 -17.05 -29.5
245 1 -26.35 -16.293 -28.9141
246 1 -26.35 -17.807 -28.9141
247 2 -23.25 -17.05 -29.5
248 1 -23.25 -16.293 -28.9141
249 1 -23.25 -17.807 -28.9141
250 2 -20.15 -17.05 -29.5
251 1 -20.15 -16.293 -28.9141
252 1 -20.15 -17.807 -28.9141
253 2 -17.05 -17.05 -29.5
254 1 -17.05 -16.293 -28.9141
255 1 -17.05 -17.807 -28.9141
256 2 -13.95 -17.05 -29.5
257 1 -13.95 -16.293 -28.9141
258 1 -13.95 -17.807 -28.9141
259 2 -10.85 -17.05 -29.5
260 1 -10.85 -16.293 -28.9141
261 1 -10.85 -17.807 -28.9141
262 2 -7.75 -17.05 -29.5
263 1 -7.75 -16.293 -28.9141
264 1 -7.75 -17.807 -28.9141
265 2 -4.65 -17.05 -29.5
266 1 -4.65 -16.293 -28.9141
267 1 -4.65 -17.807 -28.9141
268 2 -1.55 -17.05 -29.5
269 1 -1.55 -16.293 -28.9141
270 1 -1.55 -17.807 -28.9141
271 2 1.55 -17.05 -29.5
272 1 1.55 -16.293 -28.9141
273 1 1.55 -17.807 -28.9141
274 2 4.65 -17.05 -29.5
275 1 4.65 -16.293 -28.9141
276 1 4.65 -17.807 -28.9141
277 2 7.75 -17.05 -29.5
278 1 7.75 -16.293 -28.9141
279 1 7.75 -17.807 -28.9141
280 2 10.85 -17.05 -29.5
281 1 10.85 -16.293 -28.9141
282 1 10.85 -17.807 -28.9141
283 2 13.95 -17.05 -29.5
284 1 13.95 -16.293 -28.9141
285 1 13.95 -17.807 -28.9141
286 2 17.05 -17.05 -29.5
287 1 17.05 -16.293 -28.9141
288 1 17.05 -17.807 -28.9141
289 2 20.15 -17.05 -29.5
290 1 20.15 -16.293 -28.9141
291 1 20.15 -17.807 -28.9141
292 2 23.25 -17.05 -29.5
293 1 23.25 -16.293 -28.9141
294 1 23.25 -17.807 -28.9141
295 2 26.35 -17.05 -29.5
296 1 26.35 -16.293 -28.9141
297 1 26.35 -17.807 -28.9141
298 2 29.45 -17.05 -29.5
299 1 29.45 -16.293 -28.9141
300 1 29.45 -17.807 -28.9141
301 2 -29.45 -13.95 -29.5
302 1 -29.45 -13.193 -28.9141
303 1 -29.45 -14.707 -28.9141
304 2 -26.35 -13.95 -29.5
305 1 -26.35 -13.193 -28.9141
306 1 -26.35 -14.707 -28.9141
307 2 -23.25 -13.95 -29.5
308 1 -23.25 -13.193 -28.9141
309 1 -23.25 -14.707 -28.9141
310 2 -20.15 -13.95 -29.5
311 1 -20.15 -13.193 -28.9141
312 1 -20.15 -14.707 -28.9141
313 2 -17.05 -13.95 -29.5
314 1 -17.05 -13.193 -28.9141
315 1 -17.05 -14.707 -28.9141
316 2 -13.95 -13.95 -29.5
317 1 -13.95 -13.193 -28.9141
318 1 -13.95 -14.707 -28.9141
319 2 -10.85 -13.95 -29.5
320 1 -10.85 -13.193 -28.9141
321 1 -10.85 -14.707 -28.9141
322 2 -7.75 -13.95 -29.5
323 1 -7.75 -13.193 -28.9141
324 1 -7.75 -14.707 -28.9141
325 2 -4.65 -13.95 -29.5
326 1 -4.65 -13.193 -28.9141
327 1 -4.65 -14.707 -28.9141
328 2 -1.55 -13.95 -29.5
329 1 -1.55 -13.193 -28.9141
330 1 -1.55 -14.707 -28.9141
331 2 1.55 -13.95 -29.5
332 1 1.55 -13.193 -28.9141
333 1 1.55 -14.707 -28.9141
334 2 4.65 -13.95 -29.5
335 1 4.65 -13.193 -28.9141
336 1 4.65 -14.707 -28.9141
337 2 7.75 -13.95 -29.5
338 1 7.75 -13.193 -28.9141
339 1 7.75 -14.707 -28.9141
340 2 10.85 -13.95 -29.5
341 1 10.85 -13.193 -28.9141
342 1 10.85 -14.707 -28.9141
343 2 13.95 -13.95 -29.5
344 1 13.95 -13.193 -28.9141
345 1 13.95 -14.707 -28.9141
346 2 17.05 -13.95 -29.5
347 1 17.05 -13.193 -28.9141
348 1 17.05 -14.707 -28.9141
349 2 20.15 -13.95 -29.5
350 1 20.15 -13.193 -28.9141
351 1 20.15 -14.707 -28.9141
352 2 23.25 -13.95 -29.5
353 1 23.25 -13.193 -28.9141
354 1 23.25 -14.707 -28.9141
355 2 26.35 -13.95 -29.5
356 1 26.35 -13.193 -28.9141
357 1 26.35 -14.707 -28.9141
358 2 29.45 -13.95 -29.5
359 1 29.45 -13.193 -28.9141
360 1 29.45 -14.707 -28.9141
361 2 -29.45 -10.85 -29.5
362 1 -29.45 -10.093 -28.9141
363 1 -29.45 -11.607 -28.9141
364 2 -26.35 -10.85 -29.5
365 1 -26.35 -10.093 -28.9141
366 1 -26.35 -11.607 -28.9141
367 2 -23.25 -10.85 -29.5
368 1 -23.25 -10.093 -28.9141
369 1 -23.25 -11.607 -28.9141
370 2 -20.15 -10.85 -29.5
371 1 -20.15 -10.093 -28.9141
372 1 -20.15 -11.607 -28.9141
373 2 -17.05 -10.85 -29.5
374 1 -17.05 -10.093 -28.9141
375 1 -17.05 -11.607 -28.9141
376 2 -13.95 -10.85 -29.5
377 1 -13.95 -10.093 -28.9141
378 1 -13.95 -11.607 -28.9141
379 2 -10.85 -10.85 -29.5
380 1 -10.85 -10.093 -28.9141
381 1 -10.85 -11.607 -28.9141
382 2 -7.75 -10.85 -29.5
383 1 -7.75 -10.093 -28.9141
384 1 -7.75 -11.607 -28.9141
385 2 -4.65 -10.85 -29.5
386 1 -4.65 -10.093 -28.9141
387 1 -4.65 -11.607 -28.9141
388 2 -1.55 -10.85 -29.5
389 1 -1.55 -10.093 -28.9141
390 1 -1.55 -11.607 -28.9141
391 2 1.55 -10.85 -29.5
392 1 1.55 -10.093 -28.9141
393 1 1.55 -11.607 -28.9141
394 2 4.65 -10.85 -29.5
395 1 4.65 -10.093 -28.9141
396 1 4.65 -11.607 -28.9141
397 2 7.75 -10.85 -29.5
398 1 7.75 -10.093 -28.9141
399 1 7.75 -11.607 -28.9141
400 2 10.85 -10.85 -29.5
401 1 10.85 -10.093 -28.9141
402 1 10.85 -11.607 -28.9141
403 2 13.95 -10.85 -29.5
404 1 13.95 -10.093 -28.9141
405 1 13.95 -11.607 -28.9141
406 2 17.05 -10.85 -29.5
407 1 17.05 -10.093 -28.9141
408 1 17.05 -11.607 -28.9141
409 2 20.15 -10.85 -29.5
410 1 20.15 -10.093 -28.9141
411 1 20.15 -11.607 -28.9141
412 2 23.25 -10.85 -29.5
413 1 23.25 -10.093 -28.9141
414 1 23.25 -11.607 -28.9141
415 2 26.35 -10.85 -29.5
416 1 26.35 -10.093 -28.9141
417 1 26.35 -11.607 -28.9141
418 2 29.45 -10.85 -29.5
419 1 29.45 -10.093 -28.9141
420 1 29.45 -11.607 -28.9141
421 2 -29.45 -7.75 -29.5
422 1 -29.45 -6.99305 -28.9141
423 1 -29.45 -8.50695 -28.9141
424 2 -26.35 -7.75 -29.5
425 1 -26.35 -6.99305 -28.9141
426 1 -26.35 -8.50695 -28.9141
427 2 -23.25 -7.75 -29.5
428 1 -23.25 -6.99305 -28.9141
429 1 -23.25 -8.50695 -28.9141
430 2 -20.15 -7.75 -29.5
431 1 -20.15 -6.99305 -28.9141
432 1 -20.15 -8.50695 -28.9141
433 2 -17.05 -7.75 -29.5
434 1 -17.05 -6.99305 -28.9141
435 1 -17.05 -8.50695 -28.9141
436 2 -13.95 -7.75 -29.5
437 1 -13.95 -6.99305 -28.9141
438 1 -13.95 -8.50695 -28.9141
439 2 -10.85 -7.75 -29.5
440 1 -10.85 -6.99305 -28.9141
441 1 -10.85 -8.50695 -28.9141
442 2 -7.75 -7.75 -29.5
443 1 -7.75 -6.99305 -28.9141
444 1 -7.75 -8.50695 -28.9141
445 2 -4.65 -7.75 -29.5
446 1 -4.65 -6.99305 -28.9141
447 1 -4.65 -8.50695 -28.9141
448 2 -1.55 -7.75 -29.5
449 1 -1.55 -6.99305 -28.9141
450 1 -1.55 -8.50695 -28.9141
451 2 1.55 -7.75 -29.5
452 1 1.55 -6.99305 -28.9141
453 1 1.55 -8.50695 -28.9141
454 2 4.65 -7.75 -29.5
455 1 4.65 -6.99305 -28.9141
456 1 4.65 -8.50695 -28.9141
457 2 7.75 -7.75 -29.5
458 1 7.75 -6.99305 -28.9141
459 1 7.75 -8.50695 -28.9141
460 2 10.85 -7.75 -29.5
461 1 10.85 -6.99305 -28.9141
462 1 10.85 -8.50695 -28.9141
463 2 13.95 -7.75 -29.5
464 1 13.95 -6.99305 -28.9141
465 1 13.95 -8.50695 -28.9141
466 2 17.05 -7.75 -29.5
467 1 17.05 -6.99305 -28.9141
468 1 17.05 -8.50695 -28.9141
469 2 20.15 -7.75 -29.5
470 1 20.15 -6.99305 -28.9141
471 1 20.15 -8.50695 -28.9141
472 2 23.25 -7.75 -29.5
473 1 23.25 -6.99305 -28.9141
474 1 23.25 -8.50695 -28.9141
475 2 26.35 -7.75 -29.5
476 1 26.35 -6.99305 -28.9141
477 1 26.35 -8.50695 -28.9141
478 2 29.45 -7.75 -29.5
479 1 29.45 -6.99305 -28.9141
480 1 29.45 -8.50695 -28.9141
481 2 -29.45 -4.65 -29.5
482 1 -29.45 -3.89305 -28.9141
483 1 -29.45 -5.40695 -28.9141
484 2 -26.35 -4.65 -29.5
485 1 -26.35 -3.89305 -28.9141
486 1 -26.35 -5.40695 -28.9141
487 2 -23.25 -4.65 -29.5
488 1 -23.25 -3.89305 -28.9141
489 1 -23.25 -5.40695 -28.9141
490 2 -20.15 -4.65 -29.5
491 1 -20.15 -3.89305 -28.9141
492 1 -20.15 -5.40695 -28.9141
493 2 -17.05 -4.65 -29.5
494 1 -17.05 -3.89305 -28.9141
495 1 -17.05 -5.40695 -28.9141
496 2 -13.95 -4.65 -29.5
497 1 -13.95 -3.89305 -28.9141
498 1 -13.95 -5.40695 -28.9141
499 2 -10.85 -4.65 -29.5
500 1 -10.85 -3.89305 -28.9141
501 1 -10.85 -5.40695 -28.9141
502 2 -7.75 -4.65 -29.5
503 1 -7.75 -3.89305 -28.9141
504 1 -7.75 -5.40695 -28.9141
505 2 -4.65 -4.65 -29.5
506 1 -4.65 -3.89305 -28.9141
507 1 -4.65 -5.40695 -28.9141
508 2 -1.55 -4.65 -29.5
509 1 -1.55 -3.89305 -28.9141
510 1 -1.55 -5.40695 -28.9141
511 2 1.55 -4.65 -29.5
512 1 1.55 -3.89305 -28.9141
513 1 1.55 -5.40695 -28.9141
514 2 4.65 -4.65 -29.5
515 1 4.65 -3.89305 -28.9141
516 1 4.65 -5.40695 -28.9141
517 2 7.75 -4.65 -29.5
518 1 7.75 -3.89305 -28.9141
519 1 7.75 -5.40695 -28.9141
520 2 10.85 -4.65 -29.5
521 1 10.85 -3.89305 -28.9141
522 1 10.85 -5.40695 -28.9141
523 2 13.95 -4.65 -29.5
524 1 13.95 -3.89305 -28.9141
525 1 13.95 -5.40695 -28.9141
526 2 17.05 -4.65 -29.5
527 1 17.05 -3.89305 -28.9141
528 1 17.05 -5.40695 -28.9141
529 2 20.15 -4.65 -29.5
530 1 20.15 -3.89305 -28.9141
531 1 20.15 -5.40695 -28.9141
532 2 23.25 -4.65 -29.5
533 1 23.25 -3.89305 -28.9141
534 1 23.25 -5.40695 -28.9141
535 2 26.35 -4.65 -29.5
536 1 26.35 -3.89305 -28.9141
537 1 26.35 -5.40695 -28.9141
538 2 29.45 -4.65 -29.5
539 1 29.45 -3.89305 -28.9141
540 1 29.45 -5.40695 -28.9141
541 2 -29.45 -1.55 -29.5
542 1 -29.45 -0.79305 -28.9141
543 1 -29.45 -2.30695 -28.9141
544 2 -26.35 -1.55 -29.5
545 1 -26.35 -0.79305 -28.9141
546 1 -26.35 -2.30695 -28.9141
547 2 -23.25 -1.55 -29.5
548 1 -23.25 -0.79305 -28.9141
549 1 -23.25 -2.30695 -28.9141
550 2 -20.15 -1.55 -29.5
551 1 -20.15 -0.79305 -28.9141
552 1 -20.15 -2.30695 -28.9141
553 2 -17.05 -1.55 -29.5
554 1 -17.05 -0.79305 -28.9141
555 1 -17.05 -2.30695 -28.9141
556 2 -13.95 -1.55 -29.5
557 1 -13.95 -0.79305 -28.9141
558 1 -13.95 -2.30695 -28.9141
559 2 -10.85 -1.55 -29.5
560 1 -10.85 -0.79305 -28.9141
561 1 -10.85 -2.30695 -28.9141
562 2 -7.75 -1.55 -29.5
563 1 -7.75 -0.79305 -28.9141
564 1 -7.75 -2.30695 -28.9141
565 2 -4.65 -1.55 -29.5
566 1 -4.65 -0.79305 -28.9141
567 1 -4.65 -2.30695 -28.9141
568 2 -1.55 -1.55 -29.5
569 1 -1.55 -0.79305 -28.9141
570 1 -1.55 -2.30695 -28.9141
571 2 1.55 -1.55 -29.5
572 1 1.55 -0.79305 -28.9141
573 1 1.55 -2.30695 -28.9141
574 2 4.65 -1.55 -29.5
575 1 4.65 -0.79305 -28.9141
576 1 4.65 -2.30695 -28.9141
577 2 7.75 -1.55 -29.5
578 1 7.75 -0.79305 -28.9141
579 1 7.75 -2.30695 -28.9141
580 2 10.85 -1.55 -29.5
581 1 10.85 -0.79305 -28.9141
582 1 10.85 -2.30695 -28.9141
583 2 13.95 -1.55 -29.5
584 1 13.95 -0.79305 -28.9141
585 1 13.95 -2.30695 -28.9141
586 2 17.05 -1.55 -29.5
587 1 17.05 -0.79305 -28.9141
588 1 17.05 -2.30695 -28.9141
589 2 20.15 -1.55 -29.5
590 1 20.15 -0.79305 -28.9141
591 1 20.15 -2.30695 -28.9141
592 2 23.25 -1.55 -29.5
593 1 23.25 -0.79305 -28.9141
594 1 23.25 -2.30695 -28.9141
595 2 26.35 -1.55 -29.5
596 1 26.35 -0.79305 -28.9141
597 1 26.35 -2.30695 -28.9141
598 2 29.45 -1.55 -29.5
599 1 29.45 -0.79305 -28.9141
600 1 29.45 -2.30695 -28.9141
601 2 -29.45 1.55 -29.5
602 1 -29.45 2.30695 -28.9141
603 1 -29.45 0.79305 -28.9141
604 2 -26.35 1.55 -29.5
605 1 -26.35 2.30695 -28.9141
606 1 -26.35 0.79305 -28.9141
607 2 -23.25 1.55 -29.5
608 1 -23.25 2.30695 -28.9141
609 1 -23.25 0.79305 -28.9141
610 2 -20.15 1.55 -29.5
611 1 -20.15 2.30695 -28.9141
612 1 -20.15 0.79305 -28.9141
613 2 -17.05 1.55 -29.5
614 1 -17.05 2.30695 -28.9141
615 1 -17.05 0.79305 -28.9141
616 2 -13.95 1.55 -29.5
617 1 -13.95 2.30695 -28.9141
618 1 -13.95 0.79305 -28.9141
619 2 -10.85 1.55 -29.5
620 1 -10.85 2.30695 -28.9141
621 1 -10.85 0.79305 -28.9141
622 2 -7.75 1.55 -29.5
623 1 -7.75 2.30695 -28.9141
624 1 -7.75 0.79305 -28.9141
625 2 -4.65 1.55 -29.5
626 1 -4.65 2.30695 -28.9141
627 1 -4.65 0.79305 -28.9141
628 2 -1.55 1.55 -29.5
629 1 -1.55 2.30695 -28.9141
630 1 -1.55 0.79305 -28.9141
631 2 1.55 1.55 -29.5
632 1 1.55 2.30695 -28.9141
633 1 1.55 0.79305 -28.9141
634 2 4.65 1.55 -29.5
635 1 4.65 2.30695 -28.9141
636 1 4.65 0.79305 -28.9141
637 2 7.75 1.55 -29.5
638 1 7.75 2.30695 -28.9141
639 1 7.75 0.79305 -28.9141
640 2 10.85 1.55 -29.5
641 1 10.85 2.30695 -28.9141
642 1 10.85 0.79305 -28.9141
643 2 13.95 1.55 -29.5
644 1 13.95 2.30695 -28.9141
645 1 13.95 0.79305 -28.9141
646 2 17.05 1.55 -29.5
647 1 17.05 2.30695 -28.9141
648 1 17.05 0.79305 -28.9141
649 2 20.15 1.55 -29.5
650 1 20.15 2.30695 -28.9141
651 1 20.15 0.79305 -28.9141
652 2 23.25 1.55 -29.5
653 1 23.25 2.30695 -28.9141
654 1 23.25 0.79305 -28.9141
655 2 26.35 1.55 -29.5
656 1 26.35 2.30695 -28.9141
657 1 26.35 0.79305 -28.9141
658 2 29.45 1.55 -29.5
659 1 29.45 2.30695 -28.9141
660 1 29.45 0.79305 -28.9141
661 2 -29.45 4.65 -29.5
662 1 -29.45 5.40695 -28.9141
663 1 -29.45 3.89305 -28.9141
664 2 -26.35 4.65 -29.5
665 1 -26.35 5.40695 -28.9141
666 1 -26.35 3.89305 -28.9141
667 2 -23.25 4.65 -29.5
668 1 -23.25 5.40695 -28.9141
669 1 -23.25 3.89305 -28.9141
670 2 -20.15 4.65 -29.5
671 1 -20.15 5.40695 -28.9141
672 1 -20.15 3.89305 -28.9141
673 2 -17.05 4.65 -29.5
674 1 -17.05 5.40695 -28.9141
675 1 -17.05 3.89305 -28.9141
676 2 -13.95 4.65 -29.5
677 1 -13.95 5.40695 -28.9141
678 1 -13.95 3.89305 -28.9141
679 2 -10.85 4.65 -29.5
680 1 -10.85 5.40695 -28.9141
681 1 -10.85 3.89305 -28.9141
682 2 -7.75 4.65 -29.5
683 1 -7.75 5.40695 -28.9141
684 1 -7.75 3.89305 -28.9141
685 2 -4.65 4.65 -29.5
686 1 -4.65 5.40695 -28.9141
687 1 -4.65 3.89305 -28.9141
688 2 -1.55 4.65 -29.5
689 1 -1.55 5.40695 -28.9141
690 1 -1.55 3.89305 -28.9141
691 2 1.55 4.65 -29.5
692 1 1.55 5.40695 -28.9141
693 1 1.55 3.89305 -28.9141
694 2 4.65 4.65 -29.5
695 1 4.65 5.40695 -28.9141
696 1 4.65 3.89305 -28.9141
697 2 7.75 4.65 -29.5
698 1 7.75 5.40695 -28.9141
699 1 7.75 3.89305 -28.9141
700 2 10.85 4.65 -29.5
701 1 10.85 5.40695 -28.9141
702 1 10.85 3.89305 -28.9141
703 2 13.95 4.65 -29.5
704 1 13.95 5.40695 -28.9141
705 1 13.95 3.89305 -28.9141
706 2 17.05 4.65 -29.5
707 1 17.05 5.40695 -28.9141
708 1 17.05 3.89305 -28.9141
709 2 20.15 4.65 -29.5
710 1 20.15 5.40695 -28.9141
711 1 20.15 3.89305 -28.9141
712 2 23.25 4.65 -29.5
713 1 23.25 5.40695 -28.9141
714 1 23.25 3.89305 -28.9141
715 2 26.35 4.65 -29.5
716 1 26.35 5.40695 -28.9141
717 1 26.35 3.89305 -28.9141
718 2 29.45 4.65 -29.5
719 1 29.45 5.40695 -28.9141
720 1 29.45 3.89305 -28.9141
721 2 -29.45 7.75 -29.5
722 1 -29.45 8.50695 -28.9141
723 1 -29.45 6.99305 -28.9141
724 2 -26.35 7.75 -29.5
725 1 -26.35 8.50695 -28.9141
726 1 -26.35 6.99305 -28.9141
727 2 -23.25 7.75 -29.5
728 1 -23.25 8.50695 -28.9141
729 1 -23.25 6.99305 -28.9141
730 2 -20.15 7.75 -29.5
731 1 -20.15 8.50695 -28.9141
732 1 -20.15 6.99305 -28.9141
733 2 -17.05 7.75 -29.5
734 1 -17.05 8.50695 -28.9141
735 1 -17.05 6.99305 -28.9141
736 2 -13.95 7.75 -29.5
737 1 -13.95 8.50695 -28.9141
738 1 -13.95 6.99305 -28.9141
739 2 -10.85 7.75 -29.5
740 1 -10.85 8.50695 -28.9141
741 1 -10.85 6.99305 -28.9141
742 2 -7.75 7.75 -29.5
743 1 -7.75 8.50695 -28.9141
744 1 -7.75 6.99305 -28.9141
745 2 -4.65 7.75 -29.5
746 1 -4.65 8.50695 -28.9141
747 1 -4.65 6.99305 -28.9141
748 2 -1.55 7.75 -29.5
749 1 -1.55 8.50695 -28.9141
750 1 -1.55 6.99305 -28.9141
751 2 1.55 7.75 -29.5
752 1 1.55 8.50695 -28.9141
753 1 1.55 6.99305 -28.9141
754 2 4.65 7.75 -29.5
755 1 4.65 8.50695 -28.9141
756 1 4.65 6.99305 -28.9141
757 2 7.75 7.75 -29.5
758 1 7.75 8.50695 -28.9141
759 1 7.75 6.99305 -28.9141
760 2 10.85 7.75 -29.5
761 1 10.85 8.50695 -28.9141
762 1 10.85 6.99305 -28.9141
763 2 13.95 7.75 -29.5
764 1 13.95 8.50695 -28.9141
765 1 13.95 6.99305 -28.9141
766 2 17.05 7.75 -29.5
767 1 17.05 8.50695 -28.9141
768 1 17.05 6.99305 -28.9141
769 2 20.15 7.75 -29.5
770 1 20.15 8.50695 -28.9141
771 1 20.15 6.99305 -28.9141
772 2 23.25 7.75 -29.5
773 1 23.25 8.50695 -28.9141
774 1 23.25 6.99305 -28.9141
775 2 26.35 7.75 -29.5
776 1 26.35 8.50695 -28.9141
777 1 26.35 6.99305 -28.9141
778 2 29.45 7.75 -29.5
779 1 29.45 8.50695 -28.9141
780 1 29.45 6.99305 -28.9141
781 2 -29.45 10.85 -29.5
782 1 -29.45 11.607 -28.9141
783 1 -29.45 10.093 -28.9141
784 2 -26.35 10.85 -29.5
785 1 -26.35 11.607 -28.9141
786 1 -26.35 10.093 -28.9141
787 2 -23.25 10.85 -29.5
788 1 -23.25 11.607 -28.9141
789 1 -23.25 10.093 -28.9141
790 2 -20.15 10.85 -29.5
791 1 -20.15 11.607 -28.9141
792 1 -20.15 10.093 -28.9141
793 2 -17.05 10.85 -29.5
794 1 -17.05 11.607 -28.9141
795 1 -17.05 10.093 -28.9141
796 2 -13.95 10.85 -29.5
797 1 -13.95 11.607 -28.9141
798 1 -13.95 10.093 -28.9141
799 2 -10.85 10.85 -29.5
800 1 -10.85 11.607 -28.9141
801 1 -10.85 10.093 -28.9141
802 2 -7.75 10.85 -29.5
803 1 -7.75 11.607 -28.9141
804 1 -7.75 10.093 -28.9141
805 2 -4.65 10.85 -29.5
806 1 -4.65 11.607 -28.9141
807 1 -4.65 10.093 -28.9141
808 2 -1.55 10.85 -29.5
809 1 -1.55 11.607 -28.9141
810 1 -1.55 10.093 -28.9141
811 2 1.55 10.85 -29.5
812 1 1.55 11.607 -28.9141
813 1 1.55 10.093 -28.9141
814 2 4.65 10.85 -29.5
815 1 4.65 11.607 -28.9141
816 1 4.65 10.093 -28.9141
817 2 7.75 10.85 -29.5
818 1 7.75 11.607 -28.9141
819 1 7.75 10.093 -28.9141
820 2 10.85 10.85 -29.5
821 1 10.85 11.607 -28.9141
822 1 10.85 10.093 -28.9141
823 2 13.95 10.85 -29.5
824 1 13.95 11.607 -28.9141
825 1 13.95 10.093 -28.9141
826 2 17.05 10.85 -29.5
827 1 17.05 11.607 -28.9141
828 1 17.05 10.093 -28.9141
829 2 20.15 10.85 -29.5
830 1 20.15 11.607 -28.9141
831 1 20.15 10.093 -28.9141
832 2 23.25 10.85 -29.5
833 1 23.25 11.607 -28.9141
834 1 23.25 10.093 -28.9141
835 2 26.35 10.85 -29.5
836 1 26.35 11.607 -28.9141
837 1 26.35 10.093 -28.9141
838 2 29.45 10.85 -29.5
839 1 29.45 11.607 -28.9141
840 1 29.45 10.093 -28.9141
841 2 -29.45 13.95 -29.5
842 1 -29.45 14.707 -28.9141
843 1 -29.45 13.193 -28.9141
844 2 -26.35 13.95 -29.5
845 1 -26.35 14.707 -28.9141
846 1 -26.35 13.193 -28.9141
847 2 -23.25 13.95 -29.5
848 1 -23.25 14.707 -28.9141
849 1 -23.25 13.193 -28.9141
850 2 -20.15 13.95 -29.5
851 1 -20.15 14.707 -28.9141
852 1 -20.15 13.193 -28.9141
853 2 -17.05 13.95 -29.5
854 1 -17.05 14.707 -28.9141
855 1 -17.05 13.193 -28.9141
856 2 -13.95 13.95 -29.5
857 1 -13.95 14.707 -28.9141
858 1 -13.95 13.193 -28.9141
859 2 -10.85 13.95 -29.5
860 1 -10.85 14.707 -28.9141
861 1 -10.85 13.193 -28.9141
862 2 -7.75 13.95 -29.5
863 1 -7.75 14.707 -28.9141
864 1 -7.75 13.193 -28.9141
865 2 -4.65 13.95 -29.5
866 1 -4.65 14.707 -28.9141
867 1 -4.65 13.193 -28.9141
868 2 -1.55 13.95 -29.5
869 1 -1.55 14.707 -28.9141
870 1 -1.55 13.193 -28.9141
871 2 1.55 13.95 -29.5
872 1 1.55 14.707 -28.9141
873 1 1.55 13.193 -28.9141
874 2 4.65 13.95 -29.5
875 1 4.65 14.707 -28.9141
876 1 4.65 13.193 -28.9141
877 2 7.75 13.95 -29.5
878 1 7.75 14.707 -28.9141
879 1 7.75 13.193 -28.9141
880 2 10.85 13.95 -29.5
881 1 10.85 14.707 -28.9141
882 1 10.85 13.193 -28.9141
883 2 13.95 13.95 -29.5
884 1 13.95 14.707 -28.9141
885 1 13.95 13.193 -28.9141
886 2 17.05 13.95 -29.5
887 1 17.05 14.707 -28.9141
888 1 17.05 13.193 -28.9141
889 2 20.15 13.95 -29.5
890 1 20.15 14.707 -28.9141
891 1 20.15 13.193 -28.9141
892 2 23.25 13.95 -29.5
893 1 23.25 14.707 -28.9141
894 1 23.25 13.193 -28.9141
895 2 26.35 13.95 -29.5
896 1 26.35 14.707 -28.9141
897 1 26.35 13.193 -28.9141
898 2 29.45 13.95 -29.5
899 1 29.45 14.707 -28.9141
900 1 29.45 13.193 -28.9141
901 2 -29.45 17.05 -29.5
902 1 -29.45 17.807 -28.9141
903 1 -29.45 16.293 -28.9141
904 2 -26.35 17.05 -29.5
905 1 -26.35 17.807 -28.9141
906 1 -26.35 16.293 -28.9141
907 2 -23.25 17.05 -29.5
908 1 -23.25 17.807 -28.9141
909 1 -23.25 16.293 -28.9141
910 2 -20.15 17.05 -29.5
911 1 -20.15 17.807 -28.9141
912 1 -20.15 16.293 -28.9141
913 2 -17.05 17.05 -29.5
914 1 -17.05 17.807 -28.9141
915 1 -17.05 16.293 -28.9141
916 2 -13.95 17.05 -29.5
917 1 -13.95 17.807 -28.9141
918 1 -13.95 16.293 -28.9141
919 2 -10.85 17.05 -29.5
920 1 -10.85 17.807 -28.9141
921 1 -10.85 16.293 -28.9141
922 2 -7.75 17.05 -29.5
923 1 -7.75 17.807 -28.9141
924 1 -7.75 16.293 -28.9141
925 2 -4.65 17.05 -29.5
926 1 -4.65 17.807 -28.9141
927 1 -4.65 16.293 -28.9141
928 2 -1.55 17.05 -29.5
929 1 -1.55 17.807 -28.9141
930 1 -1.55 16.293 -28.9141
931 2 1.55 17.05 -29.5
932 1 1.55 17.807 -28.9141
933 1 1.55 16.293 -28.9141
934 2 4.65 17.05 -29.5
935 1 4.65 17.807 -28.9141
936 1 4.65 16.293 -28.9141
937 2 7.75 17.05 -29.5
938 1 7.75 17.807 -28.9141
939 1 7.75 16.293 -28.9141
940 2 10.85 17.05 -29.5
941 1 10.85 17.807 -28.9141
942 1 10.85 16.293 -28.9141
943 2 13.95 17.05 -29.5
944 1 13.95 17.807 -28.9141
945 1 13.95 16.293 -28.9141
946 2 17.05 17.05 -29.5
947 1 17.05 17.807 -28.9141
948 1 17.05 16.293 -28.9141
949 2 20.15 17.05 -29.5
950 1 20.15 17.807 -28.9141
951 1 20.15 16.293 -28.9141
952 2 23.25 17.05 -29.5
953 1 23.25 17.807 -28.9141
954 1 23.25 16.293 -28.9141
955 2 26.35 17.05 -29.5
956 1 26.35 17.807 -28.9141
957 1 26.35 16.293 -28.9141
958 2 29.45 17.05 -29.5
959 1 29.45 17.807 -28.9141
960 1 29.45 16.293 -28.9141
961 2 -29.45 20.15 -29.5
962 1 -29.45 20.907 -28.9141
963 1 -29.45 19.393 -28.9141
964 2 -26.35 20.15 -29.5
965 1 -26.35 20.907 -28.9141
966 1 -26.35 19.393 -28.9141
967 2 -23.25 20.15 -29.5
968 1 -23.25 20.907 -28.9141
969 1 -23.25 19.393 -28.9141
970 2 -20.15 20.15 -29.5
971 1 -20.15 20.907 -28.9141
972 1 -20.15 19.393 -28.9141
973 2 -17.05 20.15 -29.5
974 1 -17.05 20.907 -28.9141
975 1 -17.05 19.393 -28.9141
976 2 -13.95 20.15 -29.5
977 1 -13.95 20.907 -28.9141
978 1 -13.95 19.393 -28.9141
979 2 -10.85 20.15 -29.5
980 1 -10.85 20.907 -28.9141
981 1 -10.85 19.393 -28.9141
982 2 -7.75 20.15 -29.5
983 1 -7.75 20.907 -28.9141
984 1 -7.75 19.393 -28.9141
985 2 -4.65 20.15 -29.5
986 1 -4.65 20.907 -28.9141
987 1 -4.65 19.393 -28.9141
988 2 -1.55 20.15 -29.5
989 1 -1.55 20.907 -28.9141
990 1 -1.55 19.393 -28.9141
991 2 1.55 20.15 -29.5
992 1 1.55 20.907 -28.9141
993 1 1.55 19.393 -28.9141
994 2 4.65 20.15 -29.5
995 1 4.65 20.907 -28.9141
996 1 4.65 19.393 -28.9141
997 2 7.75 20.15 -29.5
998 1 7.75 20.907 -28.9141
999 1 7.75 19.393 -28.9141
1000 2 10.85 20.15 -29.5
1001 1 10.85 20.907 -28.9141
1002 1 10.85 19.393 -28.9141
1003 2 13.95 20.15 -29.5
1004 1 13.95 20.907 -28.9141
1005 1 13.95 19.393 -28.9141
1006 2 17.05 20.15 -29.5
1007 1 17.05 20.907 -28.9141
1008 1 17.05 19.393 -28.9141
1009 2 20.15 20.15 -29.5
1010 1 20.15 20.907 -28.9141
1011 1 20.15 19.393 -28.9141
1012 2 23.25 20.15 -29.5
1013 1 23.25 20.907 -28.9141
1014 1 23.25 19.393 -28.9141
1015 2 26.35 20.15 -29.5
1016 1 26.35 20.907 -28.9141
1017 1 26.35 19.393 -28.9141
1018 2 29.45 20.15 -29.5
1019 1 29.45 20.907 -28.9141
1020 1 29.45 19.393 -28.9141
1021 2 -29.45 23.25 -29.5
1022 1 -29.45 24.007 -28.9141
1023 1 -29.45 22.493 -28.9141
1024 2 -26.35 23.25 -29.5
1025 1 -26.35 24.007 -28.9141
1026 1 -26.35 22.493 -28.9141
1027 2 -23.25 23.25 -29.5
1028 1 -23.25 24.007 -28.9141
1029 1 -23.25 22.493 -28.9141
1030 2 -20.15 23.25 -29.5
1031 1 -20.15 24.007 -28.9141
1032 1 -20.15 22.493 -28.9141
1033 2 -17.05 23.25 -29.5
1034 1 -17.05 24.007 -28.9141
1035 1 -17.05 22.493 -28.9141
1036 2 -13.95 23.25 -29.5
1037 1 -13.95 24.007 -28.9141
1038 1 -13.95 22.493 -28.9141
1039 2 -10.85 23.25 -29.5
1040 1 -10.85 24.007 -28.9141
1041 1 -10.85 22.493 -28.9141
1042 2 -7.75 23.25 -29.5
1043 1 -7.75 24.007 -28.9141
1044 1 -7.75 22.493 -28.9141
1045 2 -4.65 23.25 -29.5
1046 1 -4.65 24.007 -28.9141
1047 1 -4.65 22.493 -28.9141
1048 2 -1.55 23.25 -29.5
1049 1 -1.55 24.007 -28.9141
1050 1 -1.55 22.493 -28.9141
1051 2 1.55 23.25 -29.5
1052 1 1.55 24.007 -28.9141
1053 1 1.55 22.493 -28.9141
1054 2 4.65 23.25 -29.5
1055 1 4.65 24.007 -28.9141
1056 1 4.65 22.493 -28.9141
1057 2 7.75 23.25 -29.5
1058 1 7.75 24.007 -28.9141
1059 1 7.75 22.493 -28.9141
1060 2 10.85 23.25 -29.5
1061 1 10.85 24.007 -28.9141
1062 1 10.85 22.493 -28.9141
1063 2 13.95 23.25 -29.5
1064 1 13.95 24.007 -28.9141
1065 1 13.95 22.493 -28.9141
1066 2 17.05 23.25 -29.5
1067 1 17.05 24.007 -28.9141
1068 1 17.05 22.493 -28.9141
1069 2 20.15 23.25 -29.5
1070 1 20.15 24.007 -28.9141
1071 1 20.15 22.493 -28.9141
1072 2 23.25 23.25 -29.5
1073 1 23.25 24.007 -28.9141
1074 1 23.25 22.493 -28.9141
1075 2 26.35 23.25 -29.5
1076 1 26.35 24.007 -28.9141
1077 1 26.35 22.493 -28.9141
1078 2 29.45 23.25 -29.5
1079 1 29.45 24.007 -28.9141
1080 1 29.45 22.493 -28.9141
1081 2 -29.45 26.35 -29.5