LAMMPS (11 Aug 2017)
Lattice spacing in x,y,z = 5.7 5.7 5.7
Created orthogonal box = (0 0 0) to (5.7 5.7 5.7)
LAMMPS (11 Aug 2017)
Total wall time: 0:00:00
  1 by 1 by 1 MPI processor grid
LAMMPS (11 Aug 2017)
LAMMPS (11 Aug 2017)
Created 4 atoms
Replicating atoms ...
  orthogonal box = (0 0 0) to (28.5 28.5 28.5)
  1 by 1 by 1 MPI processor grid
  500 atoms
Neighbor list info ...
  update every 1 steps, delay 0 steps, check yes
  max neighbors/atom: 2000, page size: 100000
  master list distance cutoff = 10.5
  ghost atom cutoff = 10.5
  binsize = 5.25, bins = 6 6 6
  1 neighbor lists, perpetual/occasional/extra = 1 0 0
  (1) pair lj/cut, perpetual
      attributes: half, newton on
      pair build: half/bin/atomonly/newton
      stencil: half/bin/3d/newton
      bin: standard
Total wall time: 0:00:00
Total wall time: 0:00:00
Setting up Verlet run ...
  Unit style    : metal
  Current step  : 0
  Time step     : 0.001
Per MPI rank memory allocation (min/avg/max) = 3.823 | 3.823 | 3.823 Mbytes
Step KinEng PotEng TotEng Press Temp 
       0    16.125203   -36.291337   -20.166134   -2011.8511          250 
     100    12.703445   -32.831835    -20.12839   -599.67144    196.95016 
     200    7.6840327    -27.81524   -20.131207    1290.4368    119.13079 
     300    8.6437242   -28.661322   -20.017597    1074.2529    134.00954 
     400    8.5306492   -28.365104   -19.834455    1162.0892    132.25646 
     500    8.9094397    -28.52582    -19.61638    1114.6715    138.12911 
     600    8.9847411   -28.393764   -19.409023    1151.2555    139.29656 
     700    9.3658162    -28.59002   -19.224203    1099.0405    145.20462 
     800    9.3844954   -28.417982   -19.033487    1176.9385    145.49422 
     900    9.2342128   -28.064051   -18.829839    1313.0488    143.16429 
    1000      9.50095   -28.102409   -18.601459    1301.4263     147.2997 
    1100    10.075649   -28.422746   -18.347097    1182.2158    156.20964 
    1200    10.461209   -28.536042   -18.074833    1164.4506    162.18724 
    1300    9.9638633   -27.761822   -17.797958    1441.0291    154.47656 
    1400    9.6309545   -27.165722   -17.534767    1663.1932    149.31524 
    1500    10.062517   -27.316756   -17.254239    1632.3994    156.00606 
    1600    10.335088   -27.304283   -16.969194    1637.5452    160.23191 
    1700    10.878219   -27.540337   -16.662118    1578.2249    168.65243 
    1800    10.777063   -27.130367   -16.353304    1727.5569    167.08415 
    1900    10.935562   -26.982721   -16.047159    1806.6894    169.54146 
    2000    11.071206   -26.805408   -15.734203    1899.8279    171.64444 
    2100    11.070245   -26.492118   -15.421872    2025.0668    171.62955 
    2200    11.327035    -26.42531   -15.098275    2094.8247    175.61074 
    2300     11.57714    -26.35099    -14.77385    2125.9679    179.48828 
    2400    11.937872   -26.373698   -14.435827    2135.6624    185.08095 
    2500    11.637193   -25.738955   -14.101761    2356.4947    180.41933 
    2600    12.462761    -26.22505   -13.762289    2226.0869    193.21866 
    2700    12.546838   -25.963043   -13.416206    2300.1734    194.52216 
    2800    12.691509   -25.765672   -13.074164    2376.5487     196.7651 
    2900    13.071481   -25.799601    -12.72812    2397.9293    202.65607 
    3000    13.136969   -25.521965   -12.384996    2510.6019    203.67137 
    3100     13.48557   -25.520971   -12.035401    2497.7803    209.07597 
    3200    13.876751   -25.562182   -11.685431    2496.1464    215.14072 
    3300    14.334297   -25.664508   -11.330211    2473.0156    222.23437 
    3400    14.265539   -25.254314   -10.988776     2633.808    221.16836 
    3500    14.194792   -24.850122    -10.65533    2793.9076    220.07152 
    3600    14.350014    -24.68196   -10.331945    2884.3424    222.47804 
    3700     14.62139   -24.627062   -10.005672    2923.3696    226.68536 
    3800    14.755005   -24.436171   -9.6811666    2976.6552    228.75688 
    3900    15.642317   -24.994845   -9.3525278    2832.1594    242.51348 
    4000    15.394706   -24.433497   -9.0387913    3020.6882    238.67461 
    4100    15.694176   -24.433184   -8.7390074    3056.9098     243.3175 
    4200    15.591981   -24.039737   -8.4477559    3205.8508    241.73309 
    4300    16.035205   -24.202586   -8.1673814    3208.2482     248.6047 
    4400    16.139534   -24.036552   -7.8970186    3260.8254    250.22218 
    4500    15.941489   -23.576172   -7.6346825    3370.9476    247.15176 
    4600    16.342686   -23.730968   -7.3882829    3347.0793    253.37178 
    4700    16.341227   -23.495437   -7.1542102    3423.4441    253.34917 
    4800    16.385432   -23.318934    -6.933502    3459.0214    254.03451 
    4900    17.051987   -23.772137   -6.7201497    3321.3114    264.36856 
    5000    16.958936   -23.489145   -6.5302085    3391.9398    262.92593 
    5100    16.643131   -23.000454   -6.3573235     3551.608    258.02978 
    5200    17.820698   -24.026504   -6.2058055    3266.2396    276.28642 
    5300    17.455471   -23.541972    -6.086501     3380.007    270.62406 
    5400    17.057129   -23.047977   -5.9908482    3520.2006    264.44828 
    5500     16.91104   -22.835941   -5.9249015    3587.1049    262.18336 
    5600    17.330673   -23.205748   -5.8750757    3489.6395    268.68922 
    5700    17.381913   -23.238258   -5.8563453    3487.9464    269.48363 
    5800     17.14986   -23.014966   -5.8651064    3540.1605    265.88595 
    5900    17.790031   -23.683653   -5.8936222    3324.6281    275.81096 
    6000    17.692592    -23.64651   -5.9539183    3358.6315    274.30029 
    6100    17.274967   -23.323601   -6.0486337    3475.4721    267.82558 
    6200    16.939899   -23.109088   -6.1691886    3520.0803    262.63079 
    6300    17.366794   -23.669083   -6.3022886    3351.7827    269.24923 
    6400    16.713862   -23.171989   -6.4581275    3492.1961    259.12638 
    6500    17.265255   -23.891374   -6.6261189    3255.5694    267.67501 
    6600    16.726916   -23.536521   -6.8096049    3363.2532    259.32876 
    6700    16.458487    -23.46005   -7.0015636    3402.4856    255.16712 
    6800    16.010829    -23.20266   -7.1918314     3479.687    248.22678 
    6900    15.835419   -23.199213   -7.3637949    3426.0409    245.50727 
    7000     16.45172   -23.990735   -7.5390151    3148.7427    255.06222 
    7100    15.692219   -23.408315   -7.7160956    3319.1481    243.28716 
    7200    15.614059   -23.487899   -7.8738401    3315.8429    242.07538 
    7300    15.918074   -23.931878   -8.0138039    3165.6671    246.78874 
    7400    16.078042   -24.230207    -8.152165     3072.435    249.26884 
    7500      16.1022   -24.392789   -8.2905891    3032.3257    249.64337 
    7600    14.999898   -23.421479   -8.4215809    3326.4961    232.55363 
    7700    16.454896   -24.985862   -8.5309664    2862.6965    255.11145 
    7800    15.482574   -24.124181    -8.641607    3125.6979    240.03688 
    7900    15.716206   -24.455982   -8.7397759    3005.1503    243.65904 
    8000    15.735596   -24.567028   -8.8314318    2965.5128    243.95965 
    8100    16.090973   -25.003816   -8.9128432    2822.9601    249.46931 
    8200    15.028441   -24.014854    -8.986413    3102.1867    232.99616 
    8300    15.651287   -24.695494   -9.0442076    2894.5274    242.65255 
    8400     15.20799   -24.306255   -9.0982651    3010.7858    235.77982 
    8500    15.373297   -24.501626   -9.1283286    2980.9177    238.34269 
    8600    14.824169   -23.963795   -9.1396261    3165.1994    229.82919 
    8700    15.428301   -24.565345   -9.1370431    2986.4638    239.19546 
    8800    15.503182   -24.616535    -9.113353     2968.586    240.35639 
    8900    14.774273   -23.846541    -9.072268    3184.6533    229.05561 
    9000    15.048072   -24.059638   -9.0115662    3134.2495     233.3005 
    9100    14.938273   -23.868132   -8.9298599    3203.4945    231.59821 
    9200    15.523551   -24.350199   -8.8266475    3037.1526    240.67219 
    9300    16.077551   -24.787022   -8.7094714    2895.8399    249.26121 
    9400     15.78221   -24.370849   -8.5886389     3030.749    244.68234 
    9500    15.316344   -23.780323   -8.4639784    3208.0603    237.45971 
    9600    16.728823   -25.059577   -8.3307539    2826.1308    259.35834 
    9700    16.740535   -24.942488   -8.2019522     2845.238    259.53992 
    9800    16.032603   -24.118112    -8.085509    3113.1374    248.56435 
    9900    16.844827   -24.815765   -7.9709383    2935.6151    261.15682 
   10000    16.063262   -23.927972   -7.8647099    3227.0947    249.03969 
   10100    15.808411   -23.572023   -7.7636128    3368.0797    245.08855 
   10200    15.667982   -23.325807   -7.6578248    3463.0404    242.91139 
   10300    15.588835   -23.137584   -7.5487492    3497.1279    241.68432 
   10400    16.276289   -23.705994    -7.429705    3318.2544    252.34239 
   10500    15.849624   -23.161044   -7.3114205    3483.7516     245.7275 
   10600    16.925297   -24.115443   -7.1901457    3184.1653     262.4044 
   10700    16.317331   -23.404919   -7.0875884    3375.9058    252.97869 
   10800    16.838159   -23.830201   -6.9920428    3251.0407    261.05343 
   10900      16.6757   -23.580756   -6.9050558    3336.8093    258.53474 
   11000    16.407362   -23.235246   -6.8278845    3460.7393     254.3745 
   11100    16.639895   -23.402915   -6.7630199    3404.6261    257.97963 
   11200    16.893362   -23.605532     -6.71217    3335.6966     261.9093 
   11300    17.031184   -23.705667   -6.6744827    3315.0311    264.04604 
   11400    16.493809   -23.143993   -6.6501844    3488.6199    255.71475 
   11500    17.269777     -23.9093   -6.6395233    3249.1771    267.74511 
   11600    17.026544   -23.667899   -6.6413543    3327.2272     263.9741 
   11700    16.344782   -23.007014   -6.6622324    3546.7821    253.40428 
   11800    17.436842   -24.133619   -6.6967768    3182.3953    270.33523 
   11900    17.301868   -24.065592   -6.7637243    3199.3821    268.24263 
   12000    16.855347   -23.704831   -6.8494836    3374.5969    261.31992 
   12100    15.987808   -22.932034   -6.9442256    3595.1611    247.86987 
   12200    16.942664   -23.985507   -7.0428425    3259.8944    262.67365 
   12300    16.906194   -24.062687   -7.1564929    3203.6271    262.10823 
   12400    16.953551   -24.238642   -7.2850914    3123.7579    262.84244 
   12500    16.383478   -23.809446   -7.4259674     3248.167    254.00422 
   12600    16.233102   -23.799284   -7.5661824     3222.157    251.67283 
   12700    16.372976   -24.088938   -7.7159622     3144.158    253.84139 
   12800    16.417234   -24.276675   -7.8594412    3107.4538    254.52756 
   12900    15.512146   -23.512507   -8.0003612     3316.004    240.49535 
   13000    15.507589   -23.638322   -8.1307324    3264.6685    240.42471 
   13100    16.164285    -24.41845   -8.2541649    3038.8579    250.60591 
   13200    16.159074   -24.538668   -8.3795937    3013.6735    250.52512 
   13300    15.720043   -24.210842   -8.4907988    3134.0846    243.71852 
   13400    15.025186   -23.616936   -8.5917495    3304.3376    232.94569 
   13500      15.0621   -23.736304   -8.6742036    3265.3352    233.51799 
   13600    14.755106   -23.492544   -8.7374374    3339.5654    228.75846 
   13700    15.762898   -24.545924   -8.7830259    3008.6919    244.38294 
   13800    15.444965   -24.266435   -8.8214694    3086.9453    239.45381 
   13900    15.751496   -24.591766   -8.8402695    2961.4338    244.20616 
   14000    15.743972   -24.591359   -8.8473868    2952.2871    244.08952 
   14100    15.243087   -24.092486   -8.8493987    3080.6556    236.32395 
   14200    16.049668   -24.894316    -8.844648    2842.5174    248.82893 
   14300    15.074536   -23.908358   -8.8338226    3156.9868    233.71079 
   14400    15.411872   -24.217167   -8.8052949    3093.1783    238.94074 
   14500    14.961886   -23.721747    -8.759861    3257.5217     231.9643 
   14600    15.351538   -24.047146   -8.6956081     3180.142    238.00534 
   14700    15.575188    -24.18787   -8.6126812     3126.979    241.47275 
   14800    15.499552   -24.017102   -8.5175498    3172.7782     240.3001 
   14900    15.778508   -24.185986   -8.4074781    3104.0427    244.62495 
   15000    16.233471   -24.525156    -8.291685     2984.774    251.67856 
   15100    16.361214   -24.537723   -8.1765085     2987.499    253.65904 
   15200    15.785006   -23.854661    -8.069655    3216.2441    244.72569 
   15300    16.374558   -24.331712   -7.9571539    3117.2356    253.86592 
   15400    15.988973   -23.837406   -7.8484332    3306.8646    247.88793 
   15500    15.577252   -23.313557    -7.736305    3442.6507    241.50475 
   15600    16.035533   -23.649129   -7.6135962    3322.8282    248.60978 
   15700    15.947628   -23.442165   -7.4945376    3376.5965    247.24693 
   15800    16.144538   -23.521596   -7.3770582    3351.3418    250.29976 
   15900    16.211376   -23.468731   -7.2573545    3376.3564      251.336 
   16000    16.519581   -23.664375    -7.144794      3357.95     256.1143 
   16100    16.498887   -23.537631   -7.0387443     3390.038    255.79347 
   16200    17.646423    -24.59205   -6.9456275    3062.2759     273.5845 
   16300    16.860636   -23.735304   -6.8746679    3321.4867    261.40191 
   16400    16.818124    -23.62995   -6.8118256     3396.127    260.74283 
   16500    16.724861   -23.490376   -6.7655156    3423.0342     259.2969 
   16600    16.288462   -23.017096   -6.7286339    3547.1915    252.53111 
   16700    16.665553   -23.361206   -6.6956526    3420.6409    258.37742 
   16800    16.405205   -23.088424   -6.6832183    3520.1195    254.34107 
   16900    16.471899   -23.145981   -6.6740815    3535.1434    255.37506 
   17000    16.437388   -23.118004   -6.6806165     3545.138    254.84001 
   17100    17.202546   -23.890486   -6.6879398    3313.3313    266.70278 
   17200    16.351076   -23.067791   -6.7167153    3579.2978    253.50186 
   17300    16.955658   -23.713028   -6.7573707    3381.3175     262.8751 
   17400      15.8895    -22.70249   -6.8129898    3649.3949    246.34573 
   17500    17.102906   -23.970319   -6.8674128    3226.1805      265.158 
   17600    16.535818   -23.479258   -6.9434405    3360.6253    256.36604 
   17700    16.623818   -23.647578     -7.02376    3333.0804    257.73036 
   17800    16.437323   -23.548439   -7.1111161    3376.2835      254.839 
   17900    16.701083   -23.917414   -7.2163316    3294.7176    258.92825 
   18000    15.972316   -23.295841   -7.3235249    3477.3994    247.62969 
   18100    16.278968   -23.702865   -7.4238968    3312.6017    252.38392 
   18200    16.604995   -24.140775     -7.53578    3144.3398    257.43855 
   18300    16.506071    -24.15456   -7.6484889     3123.296    255.90485 
   18400    16.381286   -24.153903   -7.7726168    3114.7809    253.97023 
   18500    15.649731   -23.545609   -7.8958774    3304.5355    242.62843 
   18600    15.967969   -23.979661    -8.011692    3170.4471     247.5623 
   18700      16.1248    -24.24228   -8.1174808    3097.3976    249.99374 
   18800    15.404403   -23.619883   -8.2154804     3267.009    238.82494 
   18900    15.641591   -23.939951   -8.2983602    3175.6878    242.50224 
   19000    15.666551   -24.036441   -8.3698895    3149.5337    242.88921 
   19100    15.381298   -23.817697   -8.4363991     3224.937    238.46673 
   19200    15.704294   -24.186258   -8.4819642    3115.4508    243.47436 
   19300    15.888632   -24.410049   -8.5214173    3021.5019    246.33227 
   19400    15.327799   -23.878074   -8.5502747    3189.5098    237.63731 
   19500    15.491742   -24.060595   -8.5688522    3139.8846    240.17903 
   19600    15.528054   -24.102304   -8.5742502    3117.9166    240.74198 
   19700    15.579414   -24.152383   -8.5729696    3086.6785    241.53825 
   19800    15.374425   -23.935467    -8.561042     3133.491    238.36018 
   19900    15.764325   -24.299754   -8.5354281     3039.891    244.40507 
   20000    14.950626   -23.450902   -8.5002751    3279.1008    231.78974 
   20100    15.520304   -23.963167   -8.4428627    3135.2629    240.62184 
   20200    15.207194   -23.581087   -8.3738927    3256.7932    235.76749 
   20300    16.219296   -24.507418   -8.2881224    2985.4814    251.45879 
   20400    15.515587   -23.712967   -8.1973798    3244.7137    240.54871 
   20500    15.304723   -23.400866   -8.0961432    3327.3299    237.27954 
   20600    16.054643   -24.034287   -7.9796445    3126.5979    248.90606 
   20700    15.268052   -23.124011   -7.8559591    3463.5497      236.711 
   20800    16.179011   -23.895513   -7.7165019    3289.7459    250.83422 
   20900    15.575156   -23.151024   -7.5758679    3529.6335    241.47224 
   21000     16.31849   -23.752832   -7.4343414    3346.3335    252.99666 
   21100    15.745435   -23.044298   -7.2988627    3559.1714     244.1122 
   21200    16.384509   -23.549828   -7.1653193    3419.7656    254.02019 
   21300    16.526613   -23.567978   -7.0413651    3371.8486    256.22333 
   21400    16.493005   -23.425149   -6.9321441    3369.7861    255.70228 
   21500     17.09114    -23.93624   -6.8450998    3220.0826    264.97558 
   21600    16.338277    -23.11925   -6.7809734    3511.6372    253.30343 
   21700    16.229517    -22.96378   -6.7342631    3576.9086    251.61724 
   21800    16.455067   -23.147983   -6.6929154     3513.753    255.11411 
   21900    16.647408   -23.302315   -6.6549071     3485.871     258.0961 
   22000    16.735821   -23.366465   -6.6306446    3457.6758    259.46682 
   22100    16.839805   -23.463879   -6.6240743    3381.2111    261.07896 
   22200     17.24749    -23.88776   -6.6402698    3270.7414    267.39958 
   22300     16.87675   -23.543475   -6.6667243    3396.6246    261.65175 
   22400    17.001673   -23.713936   -6.7122624    3365.8399    263.58851 
   22500    16.361858   -23.131311   -6.7694526    3567.4682    253.66902 
   22600    16.752084   -23.581843   -6.8297591    3441.6326    259.71896 
   22700    16.288897   -23.191738   -6.9028417    3583.4482    252.53785 
   22800    15.962489   -22.944937    -6.982448    3646.3732    247.47734 
   22900    16.568785   -23.627225   -7.0584393    3405.6932    256.87716 
   23000     16.18867   -23.325604   -7.1369337    3488.8121    250.98398 
   23100    16.531839   -23.755342   -7.2235022    3315.4419    256.30436 
   23200    16.903741   -24.229857   -7.3261169    3113.8204     262.0702 
   23300    16.440654   -23.879783   -7.4391289    3208.4537    254.89065 
   23400    15.659875   -23.221858   -7.5619829    3419.6201    242.78571 
   23500    16.029757   -23.717306   -7.6875498    3303.1832    248.52023 
   23600    16.189585   -23.991749   -7.8021639    3229.8169    250.99816 
   23700    15.881522   -23.784799   -7.9032767    3301.8841    246.22205 
   23800    16.738495   -24.752215   -8.0137196    3018.1521    259.50828 
   23900    15.547267   -23.675963   -8.1286964    3348.6484    241.03986 
   24000    16.046475   -24.270958   -8.2244837    3189.1753    248.77942 
   24100    15.969855   -24.276548   -8.3066935    3162.8659    247.59153 
   24200    15.571948   -23.952795   -8.3808466    3244.7656    241.42252 
   24300    15.217048   -23.649016   -8.4319685    3333.5002    235.92025 
   24400       15.806   -24.266011   -8.4600116    3138.1011    245.05117 
   24500    15.493204   -23.973952   -8.4807481    3217.7997    240.20169 
   24600    15.501527   -23.988049   -8.4865223    3174.7773    240.33072 
   24700    15.731532   -24.212084   -8.4805522     3132.172    243.89665 
   24800    15.291859   -23.753529   -8.4616691    3275.6287    237.08011 
   24900    15.145547   -23.582498    -8.436951    3344.0085    234.81173 
   25000    16.242821   -24.641745   -8.3989239    2995.8845    251.82351 
   25100    16.132242   -24.496864   -8.3646219     2999.952    250.10913 
   25200     15.56192   -23.896404   -8.3344845    3218.0608    241.26703 
   25300    15.478888   -23.777877   -8.2989892     3282.595    239.97974 
   25400    15.743513   -24.004474    -8.260961    3233.7876     244.0824 
   25500     15.51578   -23.737061   -8.2212811     3309.675     240.5517 
   25600    16.476989   -24.651988    -8.174999    3034.5164    255.45398 
   25700    16.282444   -24.418565   -8.1361208     3063.294    252.43781 
   25800     15.93589    -24.03839   -8.1025005    3143.3292    247.06495 
   25900    15.835165   -23.905622   -8.0704572    3182.4207    245.50334 
   26000    16.592871   -24.628884   -8.0360135     2964.609    257.25057 
   26100    16.005829   -24.017684   -8.0118546    3149.6888    248.14927 
   26200    15.982489   -23.972254   -7.9897647    3183.2975    247.78741 
   26300    15.704417    -23.66802   -7.9636036    3277.9026    243.47626 
   26400    16.205402   -24.133905   -7.9285025    3140.2826    251.24338 
   26500    15.744137   -23.635171   -7.8910334    3281.5031    244.09207 
   26600    15.543899   -23.395642   -7.8517434    3379.5567    240.98764 
   26700    16.084469    -23.88911   -7.8046412    3243.5105    249.36847 
   26800    16.700797   -24.453916   -7.7531186    3038.0077    258.92383 
   26900    16.316562   -24.027279   -7.7107166    3142.2834    252.96677 
   27000    16.662652   -24.336681    -7.674029    3066.1888    258.33243 
   27100    16.113392   -23.758133   -7.6447419    3250.3137    249.81688 
   27200    16.276878    -23.89844   -7.6215623    3248.2099    252.35152 
   27300    16.445481   -24.046903   -7.6014216    3211.1554    254.96549 
   27400    15.782658   -23.365495   -7.5828368    3402.4623     244.6893 
   27500    16.307858   -23.872317   -7.5644596    3279.9272    252.83182 
   27600    16.167099   -23.712065   -7.5449665    3336.8098    250.64954 
   27700    15.627082   -23.140641   -7.5135586    3478.6471    242.27729 
   27800     16.19037   -23.666534   -7.4761634    3288.9073    251.01033 
   27900    16.468809   -23.905686   -7.4368771    3224.8513    255.32716 
   28000    16.160479     -23.5487   -7.3882204    3361.9543    250.54691 
   28100    16.582894   -23.916259   -7.3333647    3269.9191    257.09589 
   28200    16.841851   -24.115616   -7.2737646    3219.5331    261.11068 
   28300    16.584399   -23.800217   -7.2158179    3307.2533    257.11922 
   28400    16.111598   -23.271764   -7.1601661    3452.4986    249.78907 
   28500    16.410935    -23.50349   -7.0925548    3403.2585     254.4299 
   28600    16.551435   -23.580511    -7.029076    3403.6367    256.60817 
   28700    16.393557   -23.347721    -6.954164    3435.0063    254.16048 
   28800    17.147037   -24.026718   -6.8796816    3221.6908    265.84218 
   28900    16.989773   -23.798433   -6.8086606    3319.2432    263.40401 
   29000    16.770199   -23.512118   -6.7419193    3423.8045    259.99981 
   29100    16.674161    -23.35926   -6.6850988    3445.8192    258.51087 
   29200     17.24997   -23.892506   -6.6425361    3275.0202    267.43803 
   29300    16.770704   -23.379566   -6.6088612    3421.0035    260.00765 
   29400    16.653768   -23.233128   -6.5793595    3471.1958    258.19471 
   29500    16.681532   -23.247908   -6.5663758    3472.0656    258.62515 
   29600    16.677015   -23.242844   -6.5658283     3494.927    258.55512 
   29700    17.310832   -23.892684   -6.5818528    3294.5308    268.38161 
   29800    16.704064   -23.325787   -6.6217232    3438.7781    258.97447 
   29900     16.66897    -23.34591   -6.6769406    3434.8302    258.43038 
   30000    16.612015   -23.360498    -6.748483    3427.8585    257.54738 
Loop time of 19.3798 on 1 procs for 30000 steps with 500 atoms

Performance: 133.747 ns/day, 0.179 hours/ns, 1548.000 timesteps/s
99.7% CPU use with 1 MPI tasks x no OpenMP threads

MPI task timing breakdown:
Section |  min time  |  avg time  |  max time  |%varavg| %total
---------------------------------------------------------------
Pair    | 16.677     | 16.677     | 16.677     |   0.0 | 86.06
Neigh   | 1.339      | 1.339      | 1.339      |   0.0 |  6.91
Comm    | 0.4799     | 0.4799     | 0.4799     |   0.0 |  2.48
Output  | 0.122      | 0.122      | 0.122      |   0.0 |  0.63
Modify  | 0.58432    | 0.58432    | 0.58432    |   0.0 |  3.02
Other   |            | 0.1772     |            |       |  0.91

Nlocal:    500 ave 500 max 500 min
Histogram: 1 0 0 0 0 0 0 0 0 0
Nghost:    2136 ave 2136 max 2136 min
Histogram: 1 0 0 0 0 0 0 0 0 0
Neighs:    26018 ave 26018 max 26018 min
Histogram: 1 0 0 0 0 0 0 0 0 0

Total # of neighbors = 26018
Ave neighs/atom = 52.036
Neighbor list builds = 1051
Dangerous builds = 0
Setting up Verlet run ...
  Unit style    : metal
  Current step  : 30000
  Time step     : 0.001
Per MPI rank memory allocation (min/avg/max) = 4.2 | 4.2 | 4.2 Mbytes
Step KinEng PotEng TotEng Press Temp c_1[4] v_fitslope 
   30000    16.612015   -23.360498    -6.748483    3427.8585    257.54738 1.4332771e-33 1.6666667e+20 
   30100    16.541382   -23.371543   -6.8301611    3460.8337     256.4523   0.14684384 1.6666667e+20 
   30200    16.270537   -23.200395   -6.9298574    3523.4774    252.25322   0.47850707   0.21449854 
   30300    16.597041   -23.640756   -7.0437154    3408.1105    257.31522   0.85712244   0.29656902 
   30400    16.689689   -23.858976   -7.1692873      3313.19    258.75161    1.2306581   0.35301823 
   30500     16.27386    -23.58415   -7.3102904    3328.7066    252.30472    1.6009088   0.39304087 
   30600    16.566195   -24.023131   -7.4569356    3187.9681      256.837    1.9953012   0.42417127 
   30700    15.974573   -23.586074   -7.6115013    3353.1738    247.66468    2.4182016   0.45033874 
   30800    16.133925   -23.883873   -7.7499484    3251.7455    250.13522    2.8004203   0.47090177 
   30900    16.138343   -24.021306   -7.8829629    3174.4798    250.20372    3.1733503   0.48714998 
   31000    15.732534   -23.743479   -8.0109443    3268.1707    243.91219    3.5439174   0.50022004 
   31100     15.79513   -23.914197   -8.1190669    3205.8088    244.88265     3.900454   0.51063726 
   31200    15.440682   -23.651645   -8.2109622    3259.7679    239.38741    4.2360107   0.51870865 
   31300    16.163158    -24.45252   -8.2893614    3011.1093    250.58845    4.5511339   0.52473895 
   31400    15.568476   -23.925202   -8.3567268    3167.7375    241.36867    4.8781798   0.52945692 
   31500     15.49314   -23.902016   -8.4088758     3201.413     240.2007    5.2239543   0.53342701 
   31600    15.606859   -24.056602   -8.4497432    3138.5364    241.96376    5.5810251   0.53693362 
   31700    15.996418   -24.475192   -8.4787739     3007.742    248.00336    5.9398978   0.54007367 
   31800     15.15763   -23.660022   -8.5023916    3221.4974    234.99906    6.3508024   0.54336662 
   31900     16.06797   -24.575331   -8.5073602    2936.4631    249.11268    6.8117404   0.54712944 
   32000     15.80198   -24.314175   -8.5121953    3020.1306    244.98885    7.2735674   0.55120042 
   32100    16.007916   -24.521399   -8.5134839    2963.3973    248.18161    7.7111529   0.55529402 
   32200     15.45802   -23.967525   -8.5095049    3174.1392    239.65621    8.1540331   0.55939278 
   32300    16.133009   -24.624112   -8.4911037    2998.2462    250.12101    8.6060328   0.56350571 
   32400    15.616902   -24.084912   -8.4680096    3129.1067    242.11946    9.0447806    0.5675228 
   32500    16.045484   -24.484925   -8.4394406    3027.2084    248.76406    9.4828352   0.57142648 
   32600    15.685764   -24.090573   -8.4048083     3147.075    243.18708    9.9492411   0.57533518 
   32700    15.658672   -24.021492   -8.3628196     3164.532    242.76706     10.39467   0.57913182 
   32800     15.67799   -23.978555   -8.3005651    3176.4939    243.06655    10.825512   0.58275506 
   32900    15.670018   -23.892325   -8.2223069    3199.0388    242.94295    11.289272   0.58633274 
   33000    15.985177   -24.120591    -8.135414    3144.7354    247.82907    11.802574   0.59001945 
   33100    16.264888   -24.296434    -8.031546     3085.463    252.16564    12.305619   0.59374237 
   33200    16.941608   -24.858715   -7.9171075     2912.712    262.65728    12.791684   0.59742442 
   33300    16.465081   -24.274734   -7.8096532    3126.4075    255.26935    13.346937    0.6012492 
   33400     16.16955   -23.873056   -7.7035064    3266.8194    250.68754     13.91245   0.60520281 
   33500    16.809492   -24.396241    -7.586749     3110.864      260.609    14.464425   0.60921295 
   33600    16.346923   -23.810993   -7.4640706    3293.7244    253.43747     15.04624   0.61332507 
   33700    16.468382   -23.809583   -7.3412006    3325.9664    255.32054    15.578911   0.61739577 
   33800    16.513949   -23.715233   -7.2012843    3335.7204    256.02699    16.011283   0.62119925 
   33900    17.389219   -24.445347   -7.0561283    3095.5338     269.5969    16.463689   0.62480043 
   34000    16.855069   -23.782442   -6.9273729    3310.1687    261.31561    16.908486   0.62819989 
   34100    16.302034   -23.110242   -6.8082086    3504.6517    252.74153    17.414448   0.63152734 
   34200     16.45556   -23.142398   -6.6868383    3500.9818    255.12174    17.892173   0.63473162 
   34300     17.14556   -23.710865   -6.5653043    3352.3395    265.81929     18.28654   0.63767761 
   34400     17.03003   -23.483427    -6.453397    3465.8008    264.02815    18.681802   0.64039097 
   34500     16.57718   -22.928104   -6.3509246    3639.7988     257.0073    19.169323   0.64303631 
   34600    17.251675   -23.502109   -6.2504341     3445.364    267.46446    19.634917   0.64558224 
   34700    17.060603   -23.224876   -6.1642724    3524.9175    264.50215    20.146322   0.64809949 
   34800    17.343051    -23.43539   -6.0923385    3452.4395    268.88113    20.766341   0.65073397 
   34900    17.458869   -23.490676   -6.0318072    3420.3597    270.67673    21.415231   0.65350399 
   35000      17.4841   -23.475685   -5.9915854    3447.1535     271.0679    21.989634   0.65629381 
   35100    16.856793   -22.838435   -5.9816426    3670.0268    261.34233    22.507541   0.65902638 
   35200     17.53304    -23.51653   -5.9834904    3440.6507    271.82665    23.005983   0.66167937 
   35300    16.860422   -22.874488   -6.0140658    3606.9958     261.3986    23.471069   0.66421824 
   35400     17.41912   -23.497614   -6.0784937    3431.5096    270.06047    23.855052   0.66656171 
   35500    17.323715   -23.516342   -6.1926269    3411.6515    268.58134    24.224011   0.66870971 
   35600     17.09811   -23.454935   -6.3568252    3409.6562    265.08364    24.528279   0.67061254 
   35700    17.074109   -23.646036    -6.571927    3367.4259    264.71154    24.862997   0.67232112 
   35800    16.676283   -23.500068   -6.8237858    3412.2551    258.54376    25.235861   0.67388769 
   35900    16.308087    -23.39242   -7.0843333    3423.2064    252.83537    25.562306   0.67528088 
   36000    16.588182   -23.920372   -7.3321893    3262.6255    257.17788    25.803804   0.67643969 
   36100    16.478206   -24.033332    -7.555126    3193.7898    255.47284    26.015742   0.67735889 
   36200    15.809856   -23.557655   -7.7477991    3302.6988    245.11096    26.378831   0.67818475 
   36300    16.038267   -23.941558   -7.9032911    3183.8231    248.65217    26.831518   0.67899672 
   36400     16.50318   -24.541495   -8.0383156    2983.0019    255.86003    27.334841   0.67983445 
   36500    15.795887    -23.95724   -8.1613525    3178.9734    244.89439    27.993837   0.68081248 
   36600    15.703318   -23.967074   -8.2637561    3229.1257    243.45922    28.552439   0.68184357 
   36700    14.861965   -23.206934   -8.3449691    3472.8485    230.41516     29.06843   0.68289146 
   36800    16.366092   -24.768975   -8.4028825    2970.5938    253.73467    29.514215   0.68390478 
   36900    15.597208   -24.052262   -8.4550548    3141.3291    241.81413    29.941408   0.68487264 
   37000    15.618158   -24.121967   -8.5038085    3110.5385    242.13894     30.43023   0.68583801 
   37100    15.747612   -24.279651   -8.5320386    3026.0546    244.14595    30.992269   0.68684664 
   37200     15.30588   -23.856015   -8.5501353    3164.4988    237.29748    31.481652   0.68784894 
   37300    14.944604   -23.499511   -8.5549074    3304.3606    231.69636    31.864023   0.68877976 
   37400    15.444189    -23.98007   -8.5358809    3175.0047    239.44177    32.270956   0.68965812 
   37500    15.721687   -24.226183   -8.5044961    3094.6148    243.74402    32.686382   0.69049199 
   37600    15.925004   -24.389497   -8.4644932    3048.4932    246.89618    33.148448   0.69130991 
   37700    15.761509   -24.177031   -8.4155216    3113.3013     244.3614    33.581134   0.69209633 
   37800    15.703707   -24.059893   -8.3561855    3155.4676    243.46526     34.04336   0.69286847 
   37900    15.127337   -23.422386   -8.2950491    3377.2543    234.52941    34.502099   0.69362486 
   38000    15.279122   -23.490558   -8.2114359    3353.5464    236.88263    34.975745   0.69437346 
   38100    15.942938   -24.052283   -8.1093447    3176.5062    247.17422    35.452825   0.69511587 
   38200    15.921499   -23.920603   -7.9991043     3209.547    246.84183    36.069156   0.69591872 
   38300    16.002606   -23.889109   -7.8865031    3211.9122    248.09929    36.641266    0.6967564 
   38400    16.081929   -23.855399     -7.77347    3242.6277    249.32909    37.094582   0.69757146 
   38500    15.828298   -23.493109   -7.6648103     3372.834    245.39688    37.537477   0.69836013 
   38600    16.500901   -24.053303   -7.5524019    3235.1099     255.8247    37.894646   0.69908609 
   38700    16.320718   -23.768885   -7.4481671    3294.5942     253.0312    38.301577   0.69977423 
   38800    16.067487   -23.414011   -7.3465243    3387.8025    249.10519    38.699766   0.70042286 
   38900    15.909256   -23.163961   -7.2547053    3461.7898    246.65203    39.118454   0.70104245 
   39000    16.825473   -23.984695   -7.1592216    3216.5572    260.85676    39.521499   0.70162818 
   39100    16.470348   -23.540679   -7.0703303    3396.1914    255.35102    39.908486   0.70217553 
   39200     16.01189   -23.005316   -6.9934255      3579.09    248.24323    40.202595   0.70265099 
   39300    16.522699   -23.445678    -6.922979    3386.6152    256.16264     40.44076   0.70303777 
   39400    17.327799   -24.187894   -6.8600944    3170.2013    268.64467    40.751623   0.70336777 
   39500    16.165904   -22.984795   -6.8188912    3556.9774    250.63101    41.057603   0.70364248 
   39600    16.537552   -23.322429   -6.7848772    3489.6003    256.39293    41.410618   0.70388163 
   39700    15.862224   -22.618786   -6.7565626    3738.4266    245.92285    41.844486   0.70411507 
   39800    16.022321   -22.750429   -6.7281083    3710.6188    248.40495    42.294661   0.70434851 
   39900    16.586067   -23.284805   -6.6987381    3503.6619    257.14508    42.648675   0.70454998 
   40000    16.922229   -23.592772   -6.6705431    3342.6528    262.35684    43.023697   0.70472803 
   40100    16.674624   -23.335227   -6.6606024    3408.5466    258.51805     43.42735   0.70489303 
   40200    16.998485   -23.666991   -6.6685066    3348.0331    263.53908    43.758668   0.70502305 
   40300    16.798615   -23.488754   -6.6901394    3439.1593    260.44036    44.059755   0.70511075 
   40400    16.674305   -23.396613   -6.7223077    3477.3879    258.51311    44.434366   0.70518054 
   40500    16.634109   -23.399821   -6.7657124    3455.9265    257.88991    44.896369   0.70525913 
   40600     16.94545   -23.770475   -6.8250246     3322.578    262.71685    45.361483   0.70534691 
   40700    16.382443   -23.294286   -6.9118433    3504.8955    253.98817     45.91758   0.70546916 
   40800     16.62284   -23.634763   -7.0119233    3414.1865     257.7152    46.428744   0.70561145 
   40900    16.727583   -23.864024   -7.1364406    3318.5143    259.33911    46.891746   0.70575945 
   41000    16.458826   -23.746314   -7.2874882    3350.4978    255.17238     47.31417   0.70590187 
   41100    15.831726   -23.302783    -7.471057    3487.9063    245.45003    47.725195   0.70603593 
   41200     15.79308   -23.455997   -7.6629174    3406.2563    244.85087     48.07598   0.70614637 
   41300    16.551604   -24.415161   -7.8635575    3097.9292    256.61078     48.39712    0.7062268 
   41400    15.722683   -23.793966   -8.0712829    3256.2322    243.75945    48.736789   0.70628337 
   41500    15.583444   -23.846459   -8.2630148    3203.0704    241.60074    48.886386   0.70627044 
   41600    16.111696   -24.546868   -8.4351719    2962.3394     249.7906    48.977045   0.70617726 
   41700    15.476754   -24.054643   -8.5778899    3109.2022    239.94665    49.191673   0.70603738 
   41800    15.464069   -24.158973   -8.6949041    3103.2496    239.74998    49.451787   0.70586383 
   41900    15.394597   -24.171489   -8.7768914    3107.0821    238.67292    49.736415   0.70566396 
   42000    15.558331   -24.389758   -8.8314273    3022.3671     241.2114    50.001896   0.70543481 
   42100     15.42114   -24.287198   -8.8660579    3054.1095    239.08444    50.441135   0.70521659 
   42200    15.378329   -24.252864    -8.874536    3058.9895     238.4207    51.053856   0.70504688 
   42300    15.807588    -24.67793   -8.8703426    2919.2191    245.07579     51.53557   0.70489518 
   42400    15.679311   -24.538633   -8.8593224    2969.9207    243.08702    51.805761   0.70471584 
   42500    15.502869   -24.347716   -8.8448465    3070.0053    240.35154    52.157047   0.70452713 
   42600    15.038884    -23.86036   -8.8214759     3234.045    233.15806    52.581115   0.70434455 
   42700    14.790109   -23.569932   -8.7798223    3291.1991    229.30113    52.989433   0.70416467 
   42800     15.39671   -24.120763   -8.7240527    3148.6222    238.70567    53.445133   0.70399689 
   42900    15.438015   -24.088537   -8.6505214    3178.4714    239.34606    53.901547   0.70384085 
   43000    15.001743    -23.57189    -8.570147    3372.8252    232.58224    54.204846    0.7036665 
   43100    15.498369   -23.975008   -8.4766391    3248.3664    240.28176    54.427817   0.70345942 
   43200    16.091271   -24.465101   -8.3738294    3031.6942    249.47393    54.620833   0.70321552 
   43300     15.97925   -24.249409   -8.2701596    3074.1929    247.73719     54.97405   0.70296609 
   43400    15.719294   -23.894935   -8.1756409    3185.1144    243.70691    55.382931   0.70272159 
   43500    15.750963   -23.832585    -8.081622    3236.9188     244.1979    55.705784   0.70246646 
   43600    16.067726   -24.053894   -7.9861674    3177.2717     249.1089    55.944647    0.7021864 
   43700    16.024021   -23.919721   -7.8957001    3217.8287    248.43131    56.198342   0.70188514 
   43800    15.860484   -23.673744   -7.8132602    3302.2729    245.89587    56.624195   0.70159323 
   43900    15.615057   -23.346012   -7.7309555    3407.1883    242.09085    57.051538   0.70131063 
   44000    15.787147   -23.428934   -7.6417872    3389.4458    244.75889    57.483911   0.70103786 
   44100    16.424805   -23.978858   -7.5540531    3216.9053    254.64494    57.892707   0.70077073 
   44200    16.259269   -23.734461   -7.4751915    3272.7816    252.07852    58.228923    0.7004973 
   44300    16.628726   -24.038367   -7.4096406    3189.8807    257.80646    58.654057   0.70023213 
   44400    16.321601   -23.673301   -7.3516994    3310.2355    253.04489     59.26254   0.70000391 
   44500    16.614401   -23.913484   -7.2990836    3226.9337    257.58436    59.703825   0.69978517 
   44600    16.015252   -23.271834   -7.2565822    3400.4112    248.29535    60.020238   0.69955641 
   44700    16.801808   -24.016442   -7.2146344    3185.9548    260.48986    60.328583   0.69931688 
   44800    16.490725   -23.680623   -7.1898981    3301.0619    255.66693     60.71098   0.69907815 
   44900    16.466428   -23.637126   -7.1706978    3330.3479    255.29025    61.184055    0.6988536 
   45000    15.979449   -23.135778   -7.1563288    3486.9019    247.74028    61.668076   0.69864435 
   45100    16.233843   -23.376787    -7.142944    3412.1376    251.68432    62.139937    0.6984481 
   45200    16.613185   -23.739139   -7.1259538     3301.492    257.56551    62.545048   0.69825494 
   45300    16.489665    -23.60968   -7.1200154    3336.2402     255.6505    62.996074   0.69807123 
   45400    16.434817   -23.559139    -7.124322    3373.6348    254.80016    63.428283   0.69789404 
   45500    16.661509   -23.789927   -7.1284188     3302.856    258.31471    63.824641    0.6977183 
   45600    16.335466   -23.483784   -7.1483181    3400.3656    253.25985    64.353814   0.69756186 
   45700    16.577107    -23.75341   -7.1763032    3344.4354    257.00618    64.897964   0.69742604 
   45800    16.144918   -23.358187   -7.2132689    3442.5425    250.30565    65.392109   0.69730353 
   45900    16.289463   -23.546218   -7.2567553    3373.1636    252.54663     65.81255   0.69718432 
   46000     16.46313   -23.768731   -7.3056004    3266.6795    255.23911     66.23908   0.69706908 
   46100    16.377253   -23.751459   -7.3742053    3243.7744    253.90771    66.609664   0.69695064 
   46200     16.61579   -24.066861    -7.451071    3128.2659     257.6059    67.022875   0.69683444 
   46300    17.064806   -24.625343   -7.5605364    2966.2572    264.56731    67.494722   0.69672769 
   46400    16.579843   -24.275809   -7.6959663    3086.8479    257.04859    68.087808   0.69664484 
   46500    15.712903   -23.578527   -7.8656249    3293.4494    243.60783    68.776737    0.6965966 
   46600    15.632217   -23.675041    -8.042824    3268.3128     242.3569    69.476625   0.69658308 
   46700    15.402866   -23.638129   -8.2352631    3250.6329    238.80111    70.261601   0.69661304 
   46800    15.732518   -24.158324   -8.4258062    3091.3706    243.91193     70.88065   0.69666568 
   46900    15.394116   -24.005859   -8.6117427    3146.2717    238.66547    71.183935   0.69670392 
   47000    15.325295   -24.103816   -8.7785212    3101.8033    237.59848    71.403577   0.69671874 
   47100    15.368746   -24.291584   -8.9228376    3027.3287    238.27213    71.817721   0.69673279 
   47200    14.854623   -23.901165   -9.0465421    3166.5075    230.30133    72.400187   0.69676476 
   47300    14.921844   -24.060067   -9.1382227    3111.0019     231.3435    72.976381   0.69681335 
   47400    15.592222    -24.78899   -9.1967681    2866.4518    241.73683    73.654297   0.69688901 
   47500    14.793562   -24.025475   -9.2319135    3071.0828    229.35466    74.454259    0.6970039 
   47600    15.777089   -25.031672   -9.2545828    2774.9061    244.60295    75.025056   0.69713239 
   47700    15.664393   -24.924597   -9.2602032    2820.8844    242.85575    75.424898    0.6972561 
   47800    14.793902   -24.048713   -9.2548104    3094.2697    229.35994    75.925876   0.69738564 
   47900     15.23258   -24.459187   -9.2266072    2975.5605    236.16105    76.566606   0.69753511 
   48000    15.455657   -24.640783   -9.1851262    2941.7513    239.61957    77.218174   0.69770493 
   48100    14.925135    -24.06502    -9.139885    3136.9432    231.39453    77.860302   0.69789347 
   48200    15.509953   -24.587107   -9.0771539    2953.9108    240.46136    78.508733   0.69810071 
   48300    14.916098   -23.926864   -9.0107668    3140.1371    231.25442    79.113566   0.69832173 
   48400    15.082704   -24.016902   -8.9341982    3103.9038    233.83743    79.552872   0.69853999 
   48500    15.254424   -24.110098    -8.855673     3112.482    236.49973    79.832788   0.69874024 
   48600    14.952221    -23.72036   -8.7681384    3285.0107    231.81446    80.138516   0.69892546 
   48700    14.974964   -23.650815    -8.675851    3284.6344    232.16707    80.682692   0.69911851 
   48800    15.693921   -24.262547   -8.5686255     3031.686    243.31355    81.230128   0.69931941 
   48900    15.283217   -23.754283   -8.4710667    3191.2528    236.94611    81.657598   0.69951685 
   49000    16.279237    -24.65711   -8.3778723    2958.3131     252.3881    81.829859   0.69968766 
   49100    15.658351   -23.949092   -8.2907404    3188.3161    242.76208    82.072395   0.69983897 
   49200     15.61255   -23.816737   -8.2041879    3228.1804    242.05198    82.327842   0.69997251 
   49300    15.610502   -23.730665   -8.1201631    3222.3616    242.02024    82.580274   0.70008853 
   49400    15.987309   -24.022946   -8.0356376    3174.7574    247.86213    82.875841   0.70019131 
   49500    16.588417   -24.548648   -7.9602309    3051.5522    257.18151    83.035104   0.70026946 
   49600    15.897695   -23.788224   -7.8905289    3286.2226    246.47279    83.217855   0.70032572 
   49700    16.373039   -24.200416    -7.827377    3153.3253    253.84237    83.587628   0.70037657 
   49800    16.630466    -24.40289   -7.7724236    3078.4334    257.83344     84.22952   0.70044501 
   49900    16.246785   -23.974254   -7.7274684    3198.7065    251.88497    84.831154   0.70052715 
   50000    16.325795   -24.018949   -7.6931544    3198.6022    253.10991     85.28263   0.70061023 
   50100     15.91513    -23.57987   -7.6647394    3296.3181     246.7431    85.583727   0.70068197 
   50200    16.498147    -24.13165   -7.6335026    3162.5364    255.78201    86.017395   0.70075337 
   50300    16.194651   -23.807466   -7.6128152    3253.8859    251.07669    86.672034   0.70084209 
   50400    15.946843   -23.540326   -7.5934827    3349.6781    247.23476    87.459426   0.70095809 
   50500     15.98646   -23.562368    -7.575908    3362.6011    247.84897     88.17669   0.70109509 
   50600    16.585754   -24.140437   -7.5546834    3192.6975    257.14023     88.82148   0.70124684 
   50700    16.677224   -24.222678   -7.5454538    3166.0541    258.55836    89.511012   0.70141634 
   50800    15.915388   -23.456741   -7.5413533    3441.6485    246.74709    89.982091   0.70158645 
   50900    16.234924   -23.765744   -7.5308198    3357.4612    251.70109     90.13371   0.70173305 
   51000    16.296682   -23.818015   -7.5213329    3307.4932    252.65856    90.223105   0.70185214 
   51100    16.213823   -23.734077   -7.5202539    3312.7582    251.37394    90.389637   0.70195018 
   51200    16.380345   -23.905714   -7.5253694    3272.3954    253.95564    90.768456   0.70204329 
   51300    15.607937   -23.140058   -7.5321209    3507.6479    241.98047    91.258904   0.70213969 
   51400    16.193423   -23.725824   -7.5324008    3302.9558    251.05766    91.540568   0.70222428 
   51500    16.192046   -23.720668    -7.528622    3300.2775    251.03631    91.926679   0.70230481 
   51600    16.302171   -23.825596   -7.5234249    3273.3707    252.74366     92.24799    0.7023768 
   51700    16.441017   -23.967019   -7.5260025    3182.9186    254.89628    92.401235   0.70242873 
   51800    16.100583   -23.637063   -7.5364802    3268.0824    249.61829    92.697362   0.70247103 
   51900    16.212965   -23.771797   -7.5588324    3244.9771    251.36063    93.035272   0.70250683 
   52000    16.350126   -23.931398   -7.5812723    3180.2883    253.48713    93.293795   0.70253089 
   52100    16.331757   -23.940011    -7.608254    3176.4578    253.20235    93.576054   0.70254514 
   52200    16.037051    -23.68134   -7.6442895    3276.2776    248.63331    94.090307   0.70256532 
   52300    16.043847   -23.733885   -7.6900377    3288.9044    248.73869     94.50675   0.70258481 
   52400    16.268878   -24.010506   -7.7416285    3178.3352    252.22749    94.786828   0.70259467 
   52500     15.82383   -23.620536   -7.7967069    3297.3861     245.3276    95.317148   0.70261143 
   52600      15.8765   -23.734795   -7.8582943    3288.9042    246.14419    96.000433   0.70264477 
   52700    16.115641   -24.042926   -7.9272851    3177.4492    249.85175    96.475413   0.70268095 
   52800    16.265074   -24.268405   -8.0033315    3073.4698    252.16851    96.745236   0.70270688 
   52900    15.835495   -23.923921   -8.0884257    3154.3043    245.50846    97.052486   0.70272517 
   53000    15.953893   -24.135744   -8.1818509    3083.3289    247.34406    97.630464   0.70275289 
   53100     16.07476   -24.345866   -8.2711059    3055.7609    249.21795    98.297855   0.70279531 
   53200     15.32976   -23.692225   -8.3624648    3246.8668    237.66771    99.067216   0.70285829 
   53300    16.578139   -25.037088   -8.4589487    2828.5954    257.02218    99.912885   0.70294593 
   53400    14.563382   -23.118581   -8.5551992     3406.807    225.78603    100.77689   0.70305872 
   53500    15.645884   -24.275911   -8.6300274    3089.9465    242.56879    101.46775   0.70318566 
   53600    15.149119   -23.845895   -8.6967757    3209.1157    234.86711    101.92773   0.70331272 
   53700    15.657703   -24.408143   -8.7504392    2983.5179    242.75204     102.4965   0.70344628 
   53800     15.25211   -24.051635   -8.7995255    3100.6801    236.46384    103.26496   0.70359778 
   53900    15.642982   -24.472872   -8.8298903    3013.5556     242.5238    103.82169   0.70375453 
   54000    15.306059   -24.160194   -8.8541357    3100.8775    237.30025    104.10119   0.70390053 
   54100    14.882788   -23.744787   -8.8619997    3258.5716    230.73799    104.41656   0.70403807 
   54200    15.295468   -24.145057   -8.8495896     3129.939    237.13604    104.74963   0.70416833 
   54300    15.053402   -23.867198   -8.8137963    3160.8661    233.38314    105.10553   0.70429274 
   54400    15.578043   -24.336497    -8.758454     3024.575      241.517    105.24829   0.70439965 
   54500    15.253904   -23.948381   -8.6944773    3161.5886    236.49166    105.35955   0.70448772 
   54600    15.663371     -24.2668   -8.6034293    3085.4665     242.8399    105.72789   0.70457141 
   54700    15.889884   -24.378844   -8.4889594    3065.3153    246.35169    106.41077   0.70466783 
   54800    15.961549   -24.330971   -8.3694214    3049.9743    247.46276    107.00882    0.7047721 
   54900    15.649024   -23.877031   -8.2280069    3156.0646    242.61748     107.3101   0.70486825 
   55000    15.926679   -24.001525   -8.0748459     3125.199    246.92215    107.48714    0.7049499 
   55100    15.969514    -23.88283   -7.9133167    3177.0927    247.58624    107.71001   0.70501978 
   55200    16.257085   -24.008985   -7.7519005    3180.5928    252.04465    108.24493   0.70509438 
   55300     15.97604    -23.58301   -7.6069707     3311.121    247.68742    108.86788   0.70517812 
   55400    16.333139   -23.795081   -7.4619421    3230.0977    253.22377    109.31483   0.70526177 
   55500    16.317496    -23.65486   -7.3373637    3277.2553    252.98125    109.79104   0.70534681 
   55600    16.144696   -23.375971   -7.2312752    3408.8042    250.30221    110.20292   0.70542996 
   55700    16.208155   -23.347619   -7.1394638    3451.3125    251.28606    110.49802   0.70550544 
   55800    16.661691   -23.723198   -7.0615069    3383.5654    258.31753    111.02214   0.70558475 
   55900    16.891194   -23.888564   -6.9973696    3325.0496    261.87568    111.51321   0.70566618 
   56000    16.454332   -23.415867   -6.9615344    3416.3132    255.10271    111.73934   0.70573674 
   56100    16.616448   -23.552383   -6.9359349    3342.5483     257.6161    112.01462   0.70579905 
   56200      17.0326    -23.95134   -6.9187401    3221.6563    264.06799    112.74589   0.70587522 
   56300    16.307681   -23.227652   -6.9199708    3419.0699    252.82908     113.5537   0.70596857 
   56400    16.665447   -23.593539   -6.9280915    3315.4014    258.37577    114.13732    0.7060681 
   56500    16.482899   -23.433289   -6.9503894     3394.334    255.54561    114.53035    0.7061647 
   56600    16.362607   -23.342893   -6.9802857    3432.4877    253.68064    115.00871   0.70626241 
   56700    16.946041   -23.964065   -7.0180233    3226.0079    262.72602    115.70005   0.70637107 
   56800    16.166996   -23.232896   -7.0659006    3448.5962    250.64794    116.53767   0.70649713 
   56900    16.711423   -23.822583   -7.1111601    3281.1951    259.08856    117.31549   0.70663748 
   57000    16.114623   -23.277213   -7.1625896    3450.2174    249.83597    118.00822   0.70678793 
   57100    16.551788   -23.767934   -7.2161461    3344.4668    256.61363    118.78983   0.70695226 
   57200    16.385441   -23.661643   -7.2762021    3395.5403    254.03464    119.26943   0.70711667 
   57300    16.044251   -23.381825   -7.3375747     3449.561    248.74494    119.57693   0.70727352 
   57400    16.539351   -23.931886   -7.3925344    3241.0438    256.42082    119.92792   0.70742488 
   57500    16.119302    -23.57456   -7.4552573    3342.6124    249.90852    120.31424   0.70757239 
   57600    15.777548   -23.292831   -7.5152828    3416.1274    244.61006    120.80353   0.70772059 
   57700    16.277804   -23.845176   -7.5673729    3257.3162    252.36587    121.24137   0.70786724 
   57800    16.131952   -23.752819   -7.6208667    3305.4106    250.10464    121.78325    0.7080168 
   57900     16.50437   -24.179811   -7.6754412     3178.257    255.87849    122.36907   0.70817108 
   58000    15.784324   -23.516899   -7.7325742    3334.5252    244.71512    123.25802   0.70834271 
   58100    16.058888   -23.847326   -7.7884381     3240.053    248.97187    123.96888   0.70852387 
   58200    16.263138   -24.097302   -7.8341645    3177.1691     252.1385    124.48715   0.70870636 
   58300    15.771897   -23.656466   -7.8845687    3312.7645    244.52245    124.97564    0.7088889 
   58400    16.046149   -23.976654   -7.9305042    3209.6787    248.77438    125.39448   0.70906863 
   58500    15.995605   -23.968576   -7.9729713     3190.844    247.99075    125.77592   0.70924407 
   58600    15.832969   -23.843111   -8.0101421    3235.7728     245.4693    126.26785   0.70941976 
   58700    15.169769   -23.212813   -8.0430433    3426.3955    235.18726    126.65347   0.70959142 
   58800    16.363492   -24.424014   -8.0605223    3059.2479    253.69435    127.08183   0.70976083 
   58900     16.53989   -24.615514   -8.0756243    2965.5305    256.42917    127.53996   0.70992918 
   59000    15.854242   -23.953994   -8.0997519    3168.7893    245.79911    127.96419   0.71009517 
   59100    15.986513   -24.111152   -8.1246384    3130.6786     247.8498    128.56063   0.71026554 
   59200    15.779589   -23.928817   -8.1492285    3186.4349    244.64171    129.27895   0.71044492 
   59300    15.343738   -23.520583   -8.1768458    3304.4533    237.88441     130.0357   0.71063458 
   59400    16.415983   -24.615251   -8.1992684    2958.7925    254.50815    130.78304   0.71083396 
   59500    15.951372   -24.184876   -8.2335043    3067.4873    247.30497    131.50098   0.71104172 
   59600    15.641914   -23.914243   -8.2723286    3190.5653    242.50725    132.45894   0.71126673 
   59700    16.076397   -24.385373    -8.308976    3067.3578    249.24333    133.46479   0.71151043 
   59800    15.713899   -24.068312   -8.3544125    3164.3854    243.62328    133.93171   0.71175237 
   59900     15.60764   -24.006451   -8.3988115    3165.4853    241.97586    134.22021   0.71198598 
   60000    15.570645   -24.003323    -8.432678    3120.1996    241.40231    134.66628   0.71221721 
   60100    16.160316   -24.630509   -8.4701925    2954.9834    250.54439    135.11671   0.71244623 
   60200    15.142723   -23.638964   -8.4962402    3281.0824    234.76795     135.5754   0.71267337 
   60300    15.752568   -24.267183   -8.5146156    3097.0511    244.22278     135.8883   0.71289341 
   60400    15.938226   -24.463767   -8.5255417    3023.4164    247.10116    136.25769    0.7131085 
   60500     15.78065   -24.317275   -8.5366253    3062.5998    244.65816    136.67783   0.71332052 
   60600    15.312052   -23.852769   -8.5407166    3211.4718    237.39316    137.00996   0.71352641 
   60700    15.199484   -23.725475   -8.5259912    3227.6837    235.64795    137.13106   0.71371887 
   60800    15.744224   -24.239262   -8.4950381    3056.9172    244.09343    137.46684   0.71390563 
   60900    15.638272   -24.090763   -8.4524906    3124.7672    242.45078    138.07353   0.71409617 
   61000     16.02306   -24.425168   -8.4021081    3060.7656     248.4164    138.79091   0.71429421 
   61100    15.774703   -24.112654   -8.3379519    3156.3729    244.56595    139.25041   0.71449078 
   61200     15.46014   -23.723113   -8.2629738    3260.2151    239.68907     139.4364   0.71467662 
   61300    15.501135   -23.676409   -8.1752735     3254.273    240.32465    139.85564   0.71485977 
   61400    16.379214     -24.4575   -8.0782862    3024.5257     253.9381    140.04196   0.71503248 
   61500    16.190733   -24.171262   -7.9805286    3115.3229    251.01596    140.15062   0.71519234 
   61600     16.06425   -23.939832   -7.8755824     3198.362      249.055     140.3278   0.71534186 
   61700    15.982824   -23.764043    -7.781219    3255.5285    247.79261    140.64578   0.71548584 
   61800     16.08371   -23.766189    -7.682479     3281.836     249.3567    141.04834   0.71562716 
   61900      15.8715   -23.447525   -7.5760244    3407.6343    246.06667    141.51559   0.71576795 
   62000    15.954655   -23.427097   -7.4724418     3418.843    247.35588    142.10539   0.71591217 
   62100    15.740622   -23.100209   -7.3595865    3459.1692    244.03758    142.83304   0.71606417 
   62200    16.615788   -23.866379   -7.2505913     3215.887    257.60587    143.54836    0.7162234 
   62300     16.96334   -24.109835   -7.1464952    3180.4823    262.99421    144.11706   0.71638509 
   62400    16.692182   -23.752549   -7.0603673    3332.9736    258.79026    144.61255   0.71654686 
   62500    16.924102   -23.917047   -6.9929449    3307.4435    262.38587    145.04126   0.71670662 
   62600    16.992655   -23.931433   -6.9387776    3304.5143     263.4487    145.36547   0.71686114 
   62700    16.903723     -23.8089   -6.9051777    3320.8242    262.06992    145.79034   0.71701362 
   62800     16.87457   -23.762102   -6.8875317    3331.9671    261.61795    146.39413    0.7171696 
   62900    17.136005   -24.019097    -6.883092    3267.4947    265.67115    146.73266   0.71732089 
   63000    16.569089   -23.473175    -6.904086    3450.1608    256.88186    146.71929   0.71745688 
   63100    16.810814   -23.743233   -6.9324182    3383.7056     260.6295     146.9719   0.71758588 
   63200    16.460236   -23.429627   -6.9693912    3457.2297    255.19424     147.3903   0.71771297 
   63300    16.545813   -23.562769   -7.0169559    3384.0199      256.521    147.76575    0.7178369 
   63400    16.809665   -23.885658   -7.0759929    3279.2351    260.61167    148.15095   0.71795801 
   63500    16.444271   -23.594931   -7.1506596     3316.078    254.94673    148.44623   0.71807369 
   63600     16.50048   -23.736502   -7.2360222    3256.8527    255.81817    148.72761   0.71818363 
   63700    16.082125   -23.413285   -7.3311599    3385.5917    249.33213    149.11972   0.71829114 
   63800    16.872573   -24.309725   -7.4371528     3141.455    261.58698    149.71872   0.71840225 
   63900    16.239887   -23.804904   -7.5650171    3290.6788    251.77802     150.4899   0.71852185 
   64000    16.223509   -23.918009   -7.6945002     3221.557     251.5241    151.11484    0.7186456 
   64100    16.102702   -23.942483   -7.8397806    3204.5678    249.65115    151.46518   0.71876561 
   64200    15.898043   -23.881042   -7.9829995    3226.8876    246.47818    151.90077   0.71888435 
   64300    15.331737   -23.443153   -8.1114157    3367.7712    237.69836    152.56248   0.71900819 
   64400    15.872606   -24.096884   -8.2242777    3138.7174    246.08382    152.98431   0.71913033 
   64500    15.833238   -24.160288   -8.3270494    3070.7208    245.47347    153.04026   0.71924063 
   64600    15.301889   -23.727773   -8.4258842     3204.182     237.2356    153.22176   0.71934276 
   64700    15.823861   -24.326791   -8.5029299    3041.0859    245.32809    153.80055   0.71944776 
   64800    15.593286   -24.158837   -8.5655511     3092.779    241.75333    154.49269   0.71955868 
   64900    14.973694   -23.590631   -8.6169368    3273.5739    232.14737    154.98402   0.71966995 
   65000    15.577751   -24.224344    -8.646593     3053.153    241.51248    155.13951    0.7197725 
   65100    15.289796    -23.94994   -8.6601442     3138.161    237.04811    155.03693   0.71985954 
   65200     15.16247   -23.821535   -8.6590654    3203.0338    235.07409    155.05485   0.71993454 
   65300    15.699425   -24.343247   -8.6438223    3024.9582    243.39887    155.15482   0.71999989 
   65400    15.454992   -24.076038   -8.6210468    3119.7047    239.60926    155.59657   0.72006476 
   65500    15.050869   -23.643958   -8.5930891    3250.9256    233.34387    156.23472   0.72013431 
   65600    15.405794   -23.949411   -8.5436169     3164.646    238.84651    156.75215   0.72020532 
   65700    15.616803   -24.101211   -8.4844077    3107.1461    242.11793    157.09153   0.72027313 
   65800    16.051722   -24.465345   -8.4136223    2986.6843    248.86078    157.11371    0.7203296 
   65900     15.70323   -24.050636   -8.3474059    3136.5646    243.45787    157.36618   0.72038083 
   66000    16.284171   -24.568601   -8.2844298    2977.2104    252.46459    158.12975   0.72043995 
   66100    15.729666   -23.956864    -8.227198    3161.7273    243.86771    159.18492   0.72051424 
   66200    15.926384   -24.099656   -8.1732723    3165.5916    246.91757    160.01109   0.72059766 
   66300    15.757198   -23.882412   -8.1252145    3217.1561    244.29456    160.38833   0.72067879 
   66400    15.767603   -23.847164   -8.0795615    3208.2205    244.45587    160.61048   0.72075377 
   66500    16.032943   -24.062666   -8.0297229    3145.8229    248.56963    160.95813   0.72082584 
   66600    16.156328   -24.148263   -7.9919356    3129.9888    250.48255    161.43026    0.7208981 
   66700    15.470301   -23.424042   -7.9537411    3333.5219     239.8466    161.76556   0.72096718 
   66800    15.728059   -23.640435   -7.9123757    3336.1865     243.8428    161.92966   0.72102897 
   66900    16.510156   -24.383235   -7.8730782    3118.1032    255.96819    162.26347   0.72108768 
   67000    15.817055   -23.656848   -7.8397927    3305.5465    245.22257    162.72192   0.72114639 
   67100     16.19428    -24.00457   -7.8102897    3184.3169    251.07095    163.18355   0.72120516 
   67200    16.214262   -23.997002   -7.7827399    3187.4214    251.38074    163.52732   0.72126118 
   67300    15.731702   -23.492673   -7.7609713    3383.3786    243.89929    163.70898   0.72131063 
   67400    16.559277    -24.29655   -7.7372729     3133.443    256.72974    163.86773   0.72135307 
   67500    16.849258   -24.568598     -7.71934    3032.8752    261.22552    164.12158   0.72139085 
   67600    15.865991   -23.572849   -7.7068584    3332.4351    245.98125    164.42756   0.72142525 
   67700    15.863425   -23.567498   -7.7040729    3346.5089    245.94148    164.62083   0.72145372 
   67800    16.296582   -23.991861   -7.6952794    3226.2498      252.657    164.91712   0.72147872 
   67900    16.491235   -24.176866   -7.6856311    3128.2974    255.67484    165.38188   0.72150419 
   68000    15.689957    -23.37098   -7.6810228    3385.7957    243.25208    165.77705   0.72152853 
   68100    15.944271   -23.620501   -7.6762299      3314.98    247.19489    165.67161   0.72154034 
   68200    15.672991   -23.335427   -7.6624359    3390.1406    242.98904    165.31709   0.72153417 
   68300    15.986977   -23.628114    -7.641137    3307.3685    247.85698    165.25473   0.72151688 
   68400    16.216725   -23.832506   -7.6157811    3238.5619    251.41892    165.60817   0.72149798 
   68500    16.274056   -23.867247   -7.5931919    3253.8965    252.30776    165.98144   0.72147795 
   68600    16.590286   -24.163076   -7.5727893    3195.4244     257.2105    166.11372   0.72145145 
   68700    15.519161   -23.072177   -7.5530158    3519.2219    240.60412    166.17096   0.72141691 
   68800    16.293397   -23.812915   -7.5195187    3263.1193    252.60762    166.24545   0.72137484 
   68900    16.309436   -23.790963   -7.4815275    3261.7083    252.85629    166.31395   0.72132524 
   69000    16.414762   -23.865728   -7.4509665    3232.1843    254.48923     166.4369   0.72126939 
   69100    16.322244   -23.737833   -7.4155883    3253.2746    253.05486    166.75416   0.72121161 
   69200    16.780789   -24.165341   -7.3845519    3148.5294    260.16399    167.31429   0.72115715 
   69300    16.157012   -23.523449   -7.3664374    3356.2978    250.49316     167.9712   0.72110806 
   69400    16.298363   -23.642913   -7.3445498    3341.3543    252.68462    168.14878   0.72105402 
   69500    15.922811    -23.24618   -7.3233697    3443.4719    246.86217    167.98343   0.72098783 
   69600    16.053677   -23.353702   -7.3000248     3431.516    248.89109    167.90846   0.72091158 
   69700     16.50508   -23.770625   -7.2655444    3277.6619    255.88949    168.22817   0.72083373 
   69800    16.938268   -24.170772    -7.232504      3163.75     262.6055    168.82333   0.72076006 
   69900    15.540854   -22.748289   -7.2074352    3613.3134    240.94043    169.32143   0.72068848 
   70000    16.297957   -23.474789   -7.1768319    3432.8061    252.67832    169.60759   0.72061459 
   70100    16.568323   -23.703991   -7.1356682    3342.0736    256.86999    169.67697   0.72053395 
   70200    16.766768   -23.869316   -7.1025477    3295.3654    259.94662    169.65519   0.72044481 
   70300    16.225813   -23.303508   -7.0776951    3440.4059    251.55982    169.73323   0.72034932 
   70400     16.28461   -23.342269   -7.0576583    3404.7552     252.4714    169.78977   0.72024715 
   70500    16.297943   -23.332996   -7.0350528    3420.1414    252.67811    169.95307   0.72014055 
   70600    16.337738   -23.350734    -7.012996    3424.4619    253.29508    170.34741   0.72003424 
   70700    16.481693   -23.473106   -6.9914137    3387.5506     255.5269    170.56019   0.71992458 
   70800    16.503009   -23.484277   -6.9812676    3435.0623    255.85739    170.74837   0.71981113 
   70900    16.258888   -23.231698   -6.9728099    3533.0829    252.07261    171.20332   0.71969925 
   71000    17.073269   -24.043853   -6.9705845    3264.2024    264.69851    171.56951   0.71958716 
   71100    16.559018   -23.551607   -6.9925893    3362.4922    256.72573    171.59167   0.71946812 
   71200     17.30679   -24.331641   -7.0248506    3113.0969    268.31895     171.9182   0.71934817 
   71300    16.665418   -23.751058   -7.0856403    3295.4086    258.37532    172.38911   0.71923014 
   71400    16.184158   -23.344174   -7.1600157    3441.7807    250.91402    172.81495   0.71911314 
   71500    15.712013    -22.94845   -7.2364371    3548.5008    243.59403    173.03674   0.71899322 
   71600    16.913132   -24.231742   -7.3186104      3156.55     262.2158    172.95368    0.7188646 
   71700    16.582658   -24.000272   -7.4176139    3233.5342    257.09224    173.21521   0.71873397 
   71800    15.942575   -23.470585   -7.5280104    3395.5024    247.16859     174.0124   0.71861152 
   71900    16.221752   -23.856616   -7.6348643    3259.6914    251.49687    174.96885   0.71850014 
   72000    16.676768   -24.432917   -7.7561489    3069.3873    258.55128    175.54225   0.71839248 
   72100     15.63409   -23.514957   -7.8808673    3333.0514    242.38593    176.01282   0.71828658 
   72200    15.803396   -23.803134   -7.9997387    3273.6707     245.0108    176.43203   0.71818146 
   72300    15.633405   -23.741451   -8.1080469    3275.6125    242.37531    176.64625   0.71807332 
   72400    15.895064   -24.092001   -8.1969372    3172.4166    246.43199    176.84706   0.71796194 
   72500    15.578646   -23.863915   -8.2852685    3246.4408    241.52636    176.85776   0.71784391 
   72600    15.335691   -23.700431   -8.3647397    3295.0032    237.75966    176.83855   0.71771877 
   72700    16.124632     -24.5493   -8.4246672    3043.2421    249.99115    177.17223   0.71759302 
   72800    15.381272   -23.864447   -8.4831746    3259.5494    238.46633    177.65893   0.71746946 
   72900    15.330038   -23.854203   -8.5241657     3252.387    237.67201     177.9804   0.71734508 
   73000     14.99933   -23.542892   -8.5435629    3297.5877    232.54482    178.22293   0.71721849 
   73100    15.791482   -24.340527   -8.5490448    3028.3935    244.82609    178.67177   0.71709339 
   73200    15.554324   -24.097389   -8.5430653    3096.3344    241.14927    179.34921   0.71697383 
   73300    15.611835   -24.139866   -8.5280308    3065.7102     242.0409    179.96216    0.7168586 
   73400    15.319506   -23.818594   -8.4990885    3170.9813    237.50872    180.42607   0.71674501 
   73500    14.974499    -23.42555   -8.4510512    3288.6704    232.15986    181.02669   0.71663545 
   73600    15.560676   -23.942648   -8.3819726    3152.8837    241.24775    181.77336   0.71653241 
   73700    15.485122   -23.781246   -8.2961235    3218.1584    240.07639    182.34817   0.71643282 
   73800     15.31908   -23.510734   -8.1916542    3314.1632    237.50212    182.83876   0.71633518 
   73900    15.164353   -23.229536   -8.0651829    3438.0696    235.10328    183.26389   0.71623835 
   74000     15.99146   -23.904943   -7.9134821    3236.7283     247.9265    183.57901   0.71614043 
   74100    15.887481   -23.628374   -7.7408935    3316.0206    246.31443    183.75325   0.71603903 
   74200    16.137867   -23.701852   -7.5639853    3287.5976    250.19633    184.13943   0.71593782 
   74300    16.051251   -23.447778   -7.3965263    3384.8741    248.85348    184.48141   0.71583603 
   74400    16.023705   -23.266521   -7.2428157     3460.549    248.42641     184.7485   0.71573242 
   74500    16.030496   -23.133035   -7.1025396    3543.8552    248.53169    185.26585   0.71563121 
   74600    16.101889   -23.080774   -6.9788848    3541.0938    249.63855    185.78544   0.71553241 
   74700    16.676213   -23.547291   -6.8710775    3377.3056    258.54269    186.13988   0.71543324 
   74800    17.593127     -24.3875   -6.7943725    3124.2573    272.75823    186.49181   0.71533367 
   74900    16.800073   -23.550964   -6.7508914    3390.9853    260.46296    187.01604   0.71523655 
   75000     16.61059   -23.343308   -6.7327175    3493.5188    257.52529    187.18669   0.71513605 
   75100    16.441911   -23.168536   -6.7266252    3546.1584    254.91014     187.2165   0.71502994 
   75200    16.794733   -23.524285   -6.7295515    3412.1907    260.38018    187.50384   0.71492246 
   75300     16.80983   -23.552773   -6.7429429    3424.2828    260.61423    187.71357   0.71481239 
   75400     16.70968   -23.483089    -6.773409    3447.5209    259.06154    188.13405   0.71470314 
   75500    16.836162   -23.644047   -6.8078841    3384.0167    261.02249    188.41948   0.71459255 
   75600    16.727851   -23.571433   -6.8435816    3401.0676    259.34327    188.62322   0.71447934 
   75700    16.906978   -23.800457   -6.8934793    3321.9154    262.12039    189.08511   0.71436764 
   75800    16.382586   -23.334211   -6.9516247    3451.3774    253.99038    189.78996   0.71426128 
   75900    16.719286    -23.73578   -7.0164947    3297.7972    259.21046    190.37567   0.71415831 
   76000    16.401789   -23.490691   -7.0889014    3369.4749    254.28811    190.80217    0.7140562 
   76100    15.984541   -23.153014   -7.1684727    3486.7238    247.81922    191.05884   0.71395229 
   76200    16.292121   -23.523946   -7.2318247    3381.5712    252.58785    191.37511   0.71384753 
   76300    16.391082   -23.696127   -7.3050453    3307.4455     254.1221    191.93511   0.71374571 
   76400    16.783871   -24.158992   -7.3751213    3145.3922    260.21178    192.68365   0.71364969 
   76500    16.459989   -23.912108   -7.4521195    3214.0525    255.19041     193.2555   0.71355669 
   76600    16.557942   -24.101763    -7.543821    3179.5264    256.70904    194.00435   0.71346939 
   76700    16.639151   -24.281162   -7.6420116    3162.3256    257.96808    194.91322   0.71339013 
   76800    15.849339   -23.587624   -7.7382844    3393.3735     245.7231    195.65765   0.71331633 
   76900    16.287006   -24.120846   -7.8338398    3171.2767    252.50855    195.79291   0.71323875 
   77000    16.149697    -24.07838   -7.9286832    3158.5157    250.37974    196.05771   0.71315938 
   77100    16.197968   -24.216588   -8.0186199    3132.0566    251.12813    196.54815   0.71308161 
   77200    15.281545    -23.37962   -8.0980749    3385.1868     236.9202    196.89462   0.71300329 
   77300    15.745337    -23.90615   -8.1608128    3225.5607    244.11068    197.16482   0.71292329 
   77400    15.639595   -23.856622   -8.2170268    3226.1284    242.47129    197.66162   0.71284498 
   77500    15.057163   -23.317815   -8.2606524    3374.4445    233.44145    197.99733   0.71276597 
   77600    16.122477   -24.402672   -8.2801953    3046.1207    249.95774    198.61743   0.71269044 
   77700    15.759361   -24.056152   -8.2967907    3131.5323     244.3281    199.23541   0.71261831 
   77800    15.825694   -24.137367   -8.3116727    3114.3635    245.35651    199.65733    0.7125467 
   77900    16.086878    -24.41034   -8.3234618    3029.0867    249.40583    199.75134   0.71247086 
   78000    16.222241   -24.557528   -8.3352866    3010.3531    251.50445    199.89978   0.71239164 
   78100    15.047202   -23.389047   -8.3418449    3354.7844    233.28701    200.33788   0.71231323 
   78200    15.618749   -23.948373   -8.3296239    3198.2768    242.14809    200.68244   0.71223428 
   78300    15.400011   -23.710866   -8.3108545    3291.5361    238.75686    201.04243   0.71215503 
   78400    15.644523   -23.918176   -8.2736538    3239.7584    242.54768    201.45321   0.71207619 
   78500    15.528913   -23.751725   -8.2228123    3263.7737     240.7553    201.96981   0.71199926 
   78600    15.813582   -23.974798   -8.1612163    3168.0027    245.16872    202.60129   0.71192583 
   78700      15.6359   -23.713951   -8.0780515    3271.3206      242.414    203.18121   0.71185513 
   78800    15.073225   -23.060368   -7.9871429    3496.6111    233.69047     203.7257   0.71178664 
   78900     16.14654   -24.003507   -7.8569671    3221.6031     250.3308    204.09367   0.71171789 
   79000    15.868053   -23.578561   -7.7105071     3326.407    246.01323      204.826   0.71165391 
   79100    16.414704   -23.953127   -7.5384222    3205.2919    254.48833    205.67983   0.71159632 
   79200    16.048995   -23.392882   -7.3438877    3415.0127    248.81849    206.29976   0.71154184 
   79300    16.488362   -23.624247   -7.1358842    3378.7262     255.6303    206.45751   0.71148412 
   79400    16.999937   -23.910995   -6.9110581      3283.02    263.56159    206.62798   0.71142339 
   79500    16.441288   -23.146149   -6.7048612    3513.1336    254.90048    207.17866   0.71136482 
   79600    16.876565   -23.393114    -6.516549    3422.5803    261.64887    207.71834   0.71130824 
   79700    16.738123   -23.100163   -6.3620401     3534.238    259.50251    208.16486   0.71125238 
   79800    17.785645    -24.02111   -6.2354644    3254.8345    275.74296    208.20263   0.71119177 
   79900    17.011554   -23.169735   -6.1581818    3508.3086     263.7417    207.83797    0.7111211 
   80000    16.869968   -22.984241   -6.1142734    3576.5685    261.54659    207.79152   0.71104472 
   80100    16.759092   -22.849367   -6.0902753    3606.4708    259.82761    207.78518   0.71096322 
   80200    17.095085   -23.177455   -6.0823699    3513.7529    265.03674    207.79828   0.71087694 
   80300    16.811175   -22.904648   -6.0934737    3617.0583    260.63508    207.96321    0.7107879 
   80400    16.628657   -22.740751   -6.1120933    3689.6749    257.80539     208.3278   0.71069876 
   80500    16.783059   -22.921171   -6.1381122    3650.6016    260.19919    208.77815   0.71061064 
   80600     17.38052    -23.55805   -6.1775309     3454.949    269.46202    209.27623   0.71052413 
   80700    17.699503   -23.937238   -6.2377349    3338.0339    274.40744    209.67124    0.7104379 
   80800    16.463045   -22.770894   -6.3078489    3664.5587     255.2378     209.8406   0.71034905 
   80900    16.487663    -22.87399    -6.386327     3600.972    255.61946    210.05373   0.71025816 
   81000    17.036764   -23.500516   -6.4637521    3399.4864    264.13254    210.41313   0.71016713 
   81100    17.023495   -23.587099   -6.5636035    3384.2647    263.92684    210.68342   0.71007483 
   81200    16.594017    -23.25805   -6.6640325    3481.3903    257.26834    211.27055   0.70998528 
   81300     16.72744   -23.500798   -6.7733579    3410.6615    259.33689    212.13135   0.70990191 
   81400     16.53716    -23.42636   -6.8891994    3431.1555    256.38685    213.05572   0.70982544 
   81500    16.579034   -23.581792   -7.0027576    3402.7801    257.03605    213.63951   0.70975153 
   81600     16.41699   -23.532242   -7.1152518     3411.658    254.52377    213.89021   0.70967602 
   81700     16.23441   -23.455896   -7.2214855    3446.2403    251.69311    214.47057     0.709603 
   81800    16.212958   -23.530406   -7.3174482    3404.5045    251.36052    215.20826    0.7095344 
   81900    16.562636   -23.971718   -7.4090814    3267.0696    256.78182    215.59622   0.70946586 
   82000     16.43145   -23.932193   -7.5007432    3284.5727    254.74795    215.75304   0.70939454 
   82100    15.803923   -23.397754   -7.5938306     3435.061    245.01898     216.3948   0.70932641 
   82200    16.137614    -23.81004   -7.6724254    3280.8371    250.19242    217.39186   0.70926576 
   82300    16.266024    -24.00864   -7.7426164    3199.1851    252.18324    218.28684   0.70921126 
   82400    15.908351   -23.720893   -7.8125419     3271.056      246.638    219.01448   0.70916082 
   82500     16.38278   -24.256849   -7.8740691    3131.2096    253.99339    219.52759   0.70911182 
   82600    15.988401   -23.923911   -7.9355101    3238.4348    247.87906    219.82579   0.70906166 
   82700     15.56181   -23.554345   -7.9925357    3336.7715    241.26533    220.16769   0.70901088 
   82800    15.935395   -23.976084   -8.0406892    3167.4553    247.05728    220.57788   0.70896031 
   82900    16.223278   -24.307897   -8.0846183    3071.8139    251.52053    220.93199   0.70890927 
   83000     15.93502   -24.064918   -8.1298987    3144.2061    247.05146    221.29683    0.7088579 
   83100    16.211444   -24.379695   -8.1682505    3029.4807    251.33706    221.96668   0.70880979 
   83200    15.748722   -23.954113   -8.2053908    3161.6548    244.16317    222.60272   0.70876452 
   83300    15.421163    -23.65728   -8.2361162     3254.159    239.08479    222.92519   0.70871838 
   83400    15.750859   -24.002293   -8.2514347    3146.8577    244.19628    223.20695   0.70867091 
   83500    15.491261   -23.748222   -8.2569611    3223.1904    240.17156    223.65799    0.7086241 
   83600    15.234447   -23.488601   -8.2541542    3318.5721       236.19    224.06258    0.7085774 
   83700    15.975298   -24.208488   -8.2331895    3067.3095    247.67592    224.31983   0.70852911 
   83800    16.544535   -24.756919   -8.2123847    2900.8461    256.50118    224.37535   0.70847694 
   83900    16.131198   -24.321797   -8.1905984    3044.7097    250.09295    224.77506   0.70842487 
   84000    16.081525   -24.241915   -8.1603895    3091.1645    249.32283    225.67094   0.70837854 
   84100    16.222364   -24.359044   -8.1366806    3073.0663    251.50634    226.74817   0.70833994 
   84200      16.0092    -24.11625   -8.1070495    3141.1685    248.20153    227.49206   0.70830523 
   84300    15.565829   -23.634115   -8.0682864    3306.2146    241.32764     227.7426   0.70826881 
   84400    15.522678   -23.539878      -8.0172    3332.5304    240.65864    227.94846    0.7082302 
[...]
  111400    16.391416   -23.465045   -7.0736298     3432.888    254.12727    331.34666   0.70078461 
  111500    16.352176   -23.394061   -7.0418855     3424.481    253.51891    332.16558   0.70073093 
  111600    16.281279   -23.297929   -7.0166499    3453.3104    252.41975    333.15684   0.70068036 
  111700     16.32039   -23.317069    -6.996679    3446.7594    253.02611    333.81452   0.70063123 
  111800    16.359157   -23.346377   -6.9872206    3445.6144    253.62714    334.09242   0.70058162 
  111900    15.972428   -22.956344   -6.9839157    3594.1091    247.63142    334.71826   0.70053327 
  112000    16.433455   -23.408917   -6.9754616     3469.477    254.77904    336.00373   0.70048944 
  112100    16.454451   -23.428101     -6.97365    3460.4719    255.10456    336.97021   0.70044851 
  112200    16.087987   -23.069305   -6.9813181    3517.7769    249.42302     337.5746   0.70040868 
  112300    16.317225   -23.310086   -6.9928611    3437.3657    252.97704    338.15686   0.70036984 
  112400    15.935727   -22.943902   -7.0081755    3554.6686    247.06242    338.43296   0.70033048 
  112500    16.772253   -23.793624   -7.0213707    3312.0964    260.03166    338.68255   0.70029048 
  112600    16.179703    -23.22217   -7.0424675     3484.377    250.84495    339.06612    0.7002505 
  112700    16.314699   -23.379195   -7.0644961     3466.458    252.93788    339.51637   0.70021085 
  112800    16.716746   -23.802431   -7.0856858    3340.5858    259.17109    339.74793   0.70017049 
  112900    16.656588   -23.774193   -7.1176053    3306.4702    258.23842    339.70759   0.70012809 
  113000    16.887571   -24.047131   -7.1595607    3208.4097     261.8195    339.53037   0.70008301 
  113100    16.448646   -23.661063   -7.2124168     3384.259    255.01456    339.43991   0.70003569 
  113200    16.437049   -23.709008   -7.2719597    3372.7708    254.83475    339.63766   0.69998753 
  113300    16.530647   -23.873052   -7.3424045    3298.2355    256.28587     340.0422   0.69993953 
  113400    16.535112   -23.957723   -7.4226113    3250.5493    256.35509    340.78899   0.69989332 
  113500     15.72099   -23.231587   -7.5105975    3432.8852    243.73321    341.37559   0.69984813 
  113600    15.898188   -23.498692   -7.6005042    3361.8972    246.48043    341.67049   0.69980255 
  113700    15.962075   -23.644765   -7.6826909    3347.2148    247.47091    341.95402   0.69975655 
  113800    16.023055   -23.788978    -7.765923    3252.2812    248.41633    342.45317   0.69971114 
  113900    16.350611   -24.211271   -7.8606602    3119.5068    253.49465    343.07558    0.6996669 
  114000    16.103917   -24.061648    -7.957731     3209.376    249.66999    343.68929   0.69962379 
  114100     15.47749   -23.534683   -8.0571926    3350.5021    239.95807     344.1008   0.69958084 
  114200    15.874444   -24.022319   -8.1478755    3169.2131    246.11231     344.1994   0.69953659 
  114300    15.566941   -23.804591     -8.23765    3277.5591    241.34488    343.81347   0.69948878 
  114400    15.277906   -23.596096   -8.3181901    3347.6841    236.86377    343.60218   0.69943825 
  114500    15.364813   -23.750639   -8.3858255    3253.0168    238.21116    344.05945   0.69938814 
  114600    15.823783   -24.266074   -8.4422903    3087.0143    245.32689    344.69183   0.69933925 
  114700    15.268749   -23.764882   -8.4961332    3234.4657    236.72181    345.24147   0.69929119 
  114800    15.059282   -23.601784   -8.5425019    3280.4366     233.4743    345.67802   0.69924344 
  114900    15.672539   -24.242641   -8.5701017    3112.5646    242.98205    345.78842   0.69919449 
  115000    15.567993   -24.158422    -8.590429    3139.3158    241.36119    345.85586   0.69914415 
  115100     15.54643   -24.153255   -8.6068254    3133.5238    241.02688    346.29026   0.69909411 
  115200    15.960253   -24.576153   -8.6159005    3006.8637    247.44266    347.01113   0.69904568 
  115300    15.667451   -24.285583   -8.6181322     3087.403    242.90315    347.58308   0.69899818 
  115400    15.389884   -23.992396   -8.6025126    3170.3331    238.59984    347.82405   0.69895009 
  115500    15.574942    -24.15271   -8.5777681    3162.2179    241.46892    348.21744   0.69890211 
  115600    15.525193    -24.05833   -8.5331368    3199.1011    240.69764    349.19608   0.69885688 
  115700    16.322635   -24.792237   -8.4696017    2947.6758    253.06092    350.17947   0.69881442 
  115800     15.80644   -24.195824   -8.3893836    3147.3802      245.058    350.98912   0.69877391 
  115900    15.583403   -23.874509   -8.2911064    3262.8954     241.6001    351.44584   0.69873376 
  116000    15.765639   -23.935582   -8.1699429    3220.0565    244.42543    351.49158   0.69869212 
  116100    15.945882   -23.978038   -8.0321553     3206.814    247.21987    351.69814   0.69864972 
  116200    15.966778   -23.844424   -7.8776458    3274.6847    247.54383    352.12606   0.69860756 
  116300    15.968888   -23.686752   -7.7178638     3325.272    247.57655    352.48841   0.69856534 
  116400    16.777835   -24.338646   -7.5608113    3091.9071     260.1182    352.63905   0.69852211 
  116500    16.574121   -23.984877   -7.4107556    3209.3754    256.95988    352.76703    0.6984778 
  116600     17.01778   -24.295613   -7.2778334    3142.5089    263.83823    352.53252   0.69843079 
  116700    16.527739   -23.695282   -7.1675433    3306.2096    256.24078    352.60359   0.69838246 
  116800    16.931415   -24.007071   -7.0756563    3226.2157    262.49925    353.40665   0.69833604 
  116900    16.484552   -23.479842   -6.9952895    3391.3041    255.57124    354.22572    0.6982916 
  117000    16.413178   -23.343413   -6.9302353     3435.773    254.46467    354.70351   0.69824762 
  117100    17.095875   -23.969774    -6.873899    3264.7734    265.04898    355.35605   0.69820486 
  117200    16.800511   -23.635498   -6.8349869    3347.4303    260.46976    356.37036    0.6981649 
  117300    17.029152     -23.8466   -6.8174482    3300.0011    264.01453    356.84679   0.69812538 
  117400    17.072074   -23.884736   -6.8126616    3306.6782    264.67998    357.02724     0.698085 
  117500    15.966276   -22.785591   -6.8193144    3645.8553    247.53605    357.61988   0.69804555 
  117600    16.947742   -23.776005   -6.8282633    3337.8141    262.75238    358.23868   0.69800716 
  117700    16.165513   -23.016071   -6.8505584     3538.208    250.62494     358.7546   0.69796935 
  117800    17.012872    -23.89027   -6.8773986    3253.8253    263.76213      359.475   0.69793302 
  117900    17.019358   -23.939889   -6.9205309    3229.5548    263.86269    360.43774    0.6978992 
  118000    17.616661   -24.602478   -6.9858168    3005.8435    273.12309    361.26561   0.69786728 
  118100    16.156137   -23.238638   -7.0825011    3433.3483    250.47959     361.5048   0.69783474 
  118200    16.059802   -23.238604   -7.1788014    3449.5688    248.98605    362.07511   0.69780299 
  118300    16.472996   -23.760328   -7.2873316    3290.1951    255.39208    362.49176   0.69777138 
  118400    15.671937   -23.067515    -7.395578    3478.3132     242.9727    362.52016   0.69773825 
  118500    16.329088   -23.832531   -7.5034427    3243.2578    253.16096    362.37352   0.69770287 
  118600    15.702203   -23.310339   -7.6081363    3430.0101    243.44194    362.26561   0.69766542 
  118700    15.890998   -23.600813   -7.7098159    3346.3106    246.36895    362.87677   0.69762895 
  118800    16.256644   -24.067094   -7.8104503    3195.7941    252.03782    363.61649     0.697594 
  118900    17.045921   -24.963746   -7.9178246    2920.9636    264.27452     363.8368   0.69755838 
  119000    16.144217   -24.187089   -8.0428722    3155.5132    250.29478    363.84297   0.69752118 
  119100    15.193371   -23.353527   -8.1601566    3369.1726    235.55317    363.87968   0.69748255 
  119200    16.184219   -24.445269   -8.2610498    2995.6763    250.91496    364.20854   0.69744372 
  119300    15.893437   -24.255521   -8.3620841    3049.4541    246.40678    364.25869   0.69740353 
  119400    15.506401    -23.95971   -8.4533087    3147.4096    240.40629    364.46801   0.69736265 
  119500    15.339597   -23.871303   -8.5317055    3157.9245    237.82022    365.08868   0.69732279 
  119600    15.473363   -24.063506   -8.5901431    3096.5898    239.89408    366.25805   0.69728621 
  119700    15.087296   -23.723743   -8.6364471    3217.3515    233.90863    367.20934     0.697252 
  119800    15.596689   -24.263219   -8.6665298    3065.4821    241.80608    367.36378   0.69721686 
  119900    15.630119   -24.310115   -8.6799966    3023.4624    242.32437    367.02643   0.69717876 
  120000    15.625334   -24.314574   -8.6892401    3022.4164    242.25019     366.8197   0.69713826 
  120100     15.42644   -24.113859   -8.6874191    3101.9382     239.1666    367.16866   0.69709767 
  120200    15.438223   -24.108611   -8.6703885    3134.6603    239.34927    367.88454   0.69705846 
  120300     15.00342   -23.644268   -8.6408479    3315.0423    232.60823    368.19645     0.697019 
  120400     15.41787   -24.009357   -8.5914873    3192.7211    239.03374    368.05314   0.69697743 
  120500    15.500686   -24.026669   -8.5259834    3160.4144    240.31768    368.05254   0.69693434 
  120600    15.684358    -24.13602   -8.4516618    3127.4156    243.16528    368.15243   0.69689015 
  120700    15.459409     -23.8334   -8.3739912     3222.426    239.67774    368.43259    0.6968456 
  120800    15.955692   -24.238376   -8.2826846    3106.8689    247.37195    368.96788   0.69680172 
  120900    15.290074   -23.478628    -8.188554    3343.4886    237.05243    369.71078   0.69675933 
  121000    15.438337   -23.534626   -8.0962892    3323.3205    239.35104    370.03432   0.69671676 
  121100    15.386719   -23.375633   -7.9889146    3381.7732    238.55077    370.35036   0.69667396 
  121200    16.345051   -24.230979   -7.8859275    3138.0417    253.40846    370.67657   0.69663098 
  121300    16.038794   -23.833515   -7.7947212    3245.6817    248.66034    370.95072   0.69658761 
  121400    15.955157   -23.668507   -7.7133501    3302.2128    247.36366    371.41057    0.6965446 
  121500    16.328859   -23.978069     -7.64921    3245.9763    253.15741    372.06008    0.6965027 
  121600    15.920315   -23.516471   -7.5961561    3394.7668    246.82347     372.7279   0.69646197 
  121700    16.022319   -23.575348   -7.5530288    3383.0945    248.40492    373.17933   0.69642155 
  121800    15.317933   -22.834071   -7.5161385     3623.758    237.48434    373.23652   0.69637989 
  121900    16.346501   -23.822193   -7.4756925     3346.483    253.43093    373.63043   0.69633831 
  122000    15.971904   -23.416734   -7.4448303    3458.2686     247.6233    374.49271   0.69629865 
  122100    16.758583   -24.175951   -7.4173676    3204.8207    259.81972    375.01356   0.69625957 
  122200    16.093461   -23.496236   -7.4027752    3368.4963    249.50788    375.18544    0.6962197 
  122300    16.298929   -23.693793   -7.3948633     3298.562     252.6934    375.65241    0.6961802 
  122400    16.056068   -23.441239   -7.3851701     3352.033    248.92816    376.22181   0.69614145 
  122500    16.279764   -23.656496   -7.3767313    3283.8385    252.39627     376.9221   0.69610397 
  122600    16.428499    -23.80036   -7.3718609    3253.1818     254.7022    377.33079   0.69606662 
  122700    16.601237   -23.969271   -7.3680339    3231.4237    257.38028    377.39403   0.69602805 
  122800    16.240014   -23.612276   -7.3722613    3322.4691       251.78    377.62727   0.69598894 
  122900    16.355648   -23.731787   -7.3761393    3286.7619    253.57275    377.93489   0.69594958 
  123000    16.701514   -24.089012   -7.3874981    3170.0322    258.93494    378.28867   0.69591013 
  123100    15.931527   -23.333942   -7.4024158    3418.3741     246.9973    378.71808   0.69587091 
  123200    16.325423   -23.748889   -7.4234656    3332.8133    253.10415    379.49321   0.69583322 
  123300    16.006953    -23.45029   -7.4433368    3428.3873    248.16669    380.48246   0.69579787 
  123400    16.126187   -23.588072   -7.4618844    3342.9729    250.01526    381.41075   0.69576462 
  123500    16.324653   -23.807096   -7.4824432    3261.7468     253.0922    382.34333   0.69573347 
  123600    15.940665   -23.447633   -7.5069676    3402.5635    247.13898    383.23837   0.69570427 
  123700     15.83466   -23.357524   -7.5228637    3433.8599    245.49551    383.70766   0.69567538 
  123800    16.344329    -23.88606   -7.5417304    3252.2366    253.39726    383.92606   0.69564587 
  123900    16.038935   -23.604416    -7.565481    3317.9306    248.66252    384.51161   0.69561712 
  124000     15.98932   -23.580241   -7.5909215    3319.8892    247.89331    385.15504   0.69558934 
  124100    16.562457   -24.171801   -7.6093436    3157.2356    256.77905    385.81977    0.6955626 
  124200    16.154494   -23.795213   -7.6407188    3277.7706    250.45412    386.39362   0.69553657 
  124300    15.550922   -23.229321   -7.6783993    3446.5656    241.09653    386.62574   0.69550995 
  124400    15.969876   -23.682598    -7.712722    3279.7273    247.59186    386.82093   0.69548262 
  124500    16.553143   -24.298872   -7.7457285      3102.96    256.63465    386.70027    0.6954534 
  124600    15.045853   -22.827657   -7.7818035    3568.9538    233.26611    386.28854   0.69542122 
  124700    16.344116   -24.153977   -7.8098613     3176.627    253.39395     386.3193   0.69538775 
  124800     15.83199   -23.675028   -7.8430386    3285.6243    245.45411    387.03851   0.69535553 
  124900    16.562394   -24.444995   -7.8826008    3050.3633    256.77807    387.90323   0.69532511 
  125000    16.067726   -23.995414   -7.9276887    3194.9267    249.10889    388.25912   0.69529458 
  125100     15.55855   -23.533854   -7.9753047    3348.4448    241.21479    388.54453    0.6952637 
  125200    15.779084   -23.795763   -8.0166792    3240.9074    244.63387    389.06758   0.69523333 
  125300    16.259091   -24.316982   -8.0578912    3065.6247    252.07575    389.53813   0.69520329 
  125400    15.732785   -23.827803   -8.0950188    3235.3875    243.91607    390.05663   0.69517374 
  125500    15.795329    -23.92915   -8.1338215    3202.9245    244.88573    391.13758   0.69514674 
  125600    15.773226   -23.945406   -8.1721803    3206.9409    244.54306    392.05607   0.69512167 
  125700    15.458588   -23.661843   -8.2032546    3298.4083    239.66501    392.50649   0.69509683 
  125800    15.786984   -24.013336   -8.2263514    3207.3273    244.75636    392.39866   0.69507019 
  125900    16.220872    -24.46472   -8.2438483     3065.692    251.48321    392.13412    0.6950412 
  126000    15.904121   -24.163026   -8.2589052     3151.314    246.57241    392.09143   0.69501067 
  126100    15.458941   -23.726479   -8.2675386    3296.5183    239.67048     392.3798   0.69497981 
  126200    15.920942   -24.186666   -8.2657237    3145.7232     246.8332    392.20347   0.69494694 
  126300    15.322523   -23.577893   -8.2553695    3320.3975    237.55551    391.93786   0.69491176 
  126400    15.872168   -24.108518   -8.2363496    3142.6487    246.07703    392.42777   0.69487699 
  126500    15.829113   -24.038285   -8.2091723    3150.2745    245.40952    393.06991   0.69484316 
  126600    15.603069   -23.770851   -8.1677823    3248.0335    241.90499    393.25776   0.69480866 
  126700    15.269686   -23.379121   -8.1094352    3379.7097    236.73633    393.27487   0.69477288 
  126800    15.890291   -23.930457   -8.0401654    3241.1738      246.358     393.8776   0.69473791 
  126900    16.142771   -24.092872   -7.9501005    3154.8302    250.27237    394.81958   0.69470494 
  127000    16.292102   -24.141816   -7.8497148    3119.7413    252.58754    395.25794   0.69467218 
  127100    15.845765   -23.596445   -7.7506797    3300.1946    245.66768    395.55723   0.69463914 
  127200    16.629315   -24.263072   -7.6337569    3133.7474    257.81559    396.31035   0.69460742 
  127300    15.893829   -23.422686   -7.5288576    3406.9392    246.41284     397.3177   0.69457791 
  127400    16.598855   -24.016803   -7.4179474    3242.3734    257.34335    398.41583    0.6945509 
  127500    16.352808   -23.661611   -7.3088027    3381.8867    253.52871    399.21667   0.69452535 
  127600    15.961492   -23.159876   -7.1983844    3548.5781    247.46187     399.8166   0.69450054 
  127700    16.847462   -23.931896   -7.0844333     3295.321    261.19768    399.75259   0.69447416 
  127800    16.733062   -23.714359   -6.9812972    3317.6207    259.42405    399.21904   0.69444458 
  127900    17.274585   -24.170048   -6.8954623    3167.4222    267.81966    398.77059   0.69441212 
  128000    17.119994   -23.959145   -6.8391509    3243.9358    265.42292     398.1711   0.69437628 
  128100    16.844843   -23.640872   -6.7960297    3366.9141    261.15706    397.67226   0.69433742 
  128200     16.30016   -23.070386   -6.7702257    3563.2163    252.71248     398.1065   0.69429878 
  128300    16.875104   -23.624077   -6.7489731    3365.8711    261.62622      398.913   0.69426164 
  128400    16.880607   -23.624713   -6.7441057    3326.8096    261.71154    399.01409   0.69422356 
  128500    16.543692   -23.299927   -6.7562351    3437.2027    256.48812    398.59531   0.69418278 
  128600    16.748628   -23.528132    -6.779504    3374.0813    259.66538    398.17557   0.69413931 
  128700    16.376137    -23.18907   -6.8129335    3479.1239     253.8904    398.15073    0.6940945 
  128800    16.936988   -23.796033   -6.8590443    3297.6753    262.58566    398.64625   0.69405014 
  128900       16.776   -23.701011   -6.9250107    3353.9282    260.08975    398.91267   0.69400545 
  129000    16.990241   -24.000249   -7.0100084    3321.0582    263.41127    398.57604   0.69395839 
  129100    17.026389   -24.144338   -7.1179484    3278.9729     263.9717    398.54113   0.69390999 
  129200    16.175847   -23.422955   -7.2471078    3435.2192    250.78517    398.82638   0.69386134 
  129300    16.597993   -24.001088   -7.4030948    3240.2446    257.32999    398.73853   0.69381119 
  129400    16.096364   -23.658157   -7.5617927    3300.0324    249.55289    398.69471   0.69375969 
  129500    16.310957   -24.052906   -7.7419491    3182.7803    252.87986    398.79665   0.69370734 
  129600    15.957505   -23.874851   -7.9173463    3267.0421    247.40006    399.09087    0.6936548 
  129700     15.15677   -23.236652   -8.0798825    3459.3808    234.98572    399.08454   0.69360105 
  129800    15.228595   -23.444449   -8.2158543    3360.5203    236.09927    398.74111   0.69354498 
  129900    15.202388   -23.534753   -8.3323649    3303.3489    235.69298    398.89831   0.69348827 
  130000    15.204035   -23.624815   -8.4207798    3294.0568    235.71851    399.82638   0.69343349 
Loop time of 64.7417 on 1 procs for 100000 steps with 500 atoms

Performance: 133.453 ns/day, 0.180 hours/ns, 1544.599 timesteps/s
99.7% CPU use with 1 MPI tasks x no OpenMP threads

MPI task timing breakdown:
Section |  min time  |  avg time  |  max time  |%varavg| %total
---------------------------------------------------------------
Pair    | 55.609     | 55.609     | 55.609     |   0.0 | 85.89
Neigh   | 4.5406     | 4.5406     | 4.5406     |   0.0 |  7.01
Comm    | 1.6106     | 1.6106     | 1.6106     |   0.0 |  2.49
Output  | 0.4293     | 0.4293     | 0.4293     |   0.0 |  0.66
Modify  | 1.9579     | 1.9579     | 1.9579     |   0.0 |  3.02
Other   |            | 0.5947     |            |       |  0.92

Nlocal:    500 ave 500 max 500 min
Histogram: 1 0 0 0 0 0 0 0 0 0
Nghost:    2131 ave 2131 max 2131 min
Histogram: 1 0 0 0 0 0 0 0 0 0
Neighs:    26022 ave 26022 max 26022 min
Histogram: 1 0 0 0 0 0 0 0 0 0

Total # of neighbors = 26022
Ave neighs/atom = 52.044
Neighbor list builds = 3568
Dangerous builds = 0
Total wall time: 0:01:24
