ITEM: TIMESTEP
0
ITEM: NUMBER OF ATOMS
500
ITEM: BOX BOUNDS pp pp pp
0.0000000000000000e+00 2.8500000000000000e+01
0.0000000000000000e+00 2.8500000000000000e+01
0.0000000000000000e+00 2.8500000000000000e+01
ITEM: ATOMS id type x y z 
1 1 0 0 0 
2 1 2.85 2.85 0 
3 1 2.85 0 2.85 
4 1 0 2.85 2.85 
5 1 5.7 0 0 
6 1 8.55 2.85 0 
7 1 8.55 0 2.85 
8 1 5.7 2.85 2.85 
9 1 11.4 0 0 
10 1 14.25 2.85 0 
11 1 14.25 0 2.85 
12 1 11.4 2.85 2.85 
13 1 17.1 0 0 
14 1 19.95 2.85 0 
15 1 19.95 0 2.85 
16 1 17.1 2.85 2.85 
17 1 22.8 0 0 
18 1 25.65 2.85 0 
19 1 25.65 0 2.85 
20 1 22.8 2.85 2.85 
21 1 0 5.7 0 
22 1 2.85 8.55 0 
23 1 2.85 5.7 2.85 
24 1 0 8.55 2.85 
25 1 5.7 5.7 0 
26 1 8.55 8.55 0 
27 1 8.55 5.7 2.85 
28 1 5.7 8.55 2.85 
29 1 11.4 5.7 0 
30 1 14.25 8.55 0 
31 1 14.25 5.7 2.85 
32 1 11.4 8.55 2.85 
33 1 17.1 5.7 0 
34 1 19.95 8.55 0 
35 1 19.95 5.7 2.85 
36 1 17.1 8.55 2.85 
37 1 22.8 5.7 0 
38 1 25.65 8.55 0 
39 1 25.65 5.7 2.85 
40 1 22.8 8.55 2.85 
41 1 0 11.4 0 
42 1 2.85 14.25 0 
43 1 2.85 11.4 2.85 
44 1 0 14.25 2.85 
45 1 5.7 11.4 0 
46 1 8.55 14.25 0 
47 1 8.55 11.4 2.85 
48 1 5.7 14.25 2.85 
49 1 11.4 11.4 0 
50 1 14.25 14.25 0 
51 1 14.25 11.4 2.85 
52 1 11.4 14.25 2.85 
53 1 17.1 11.4 0 
54 1 19.95 14.25 0 
55 1 19.95 11.4 2.85 
56 1 17.1 14.25 2.85 
57 1 22.8 11.4 0 
58 1 25.65 14.25 0 
59 1 25.65 11.4 2.85 
60 1 22.8 14.25 2.85 
61 1 0 17.1 0 
62 1 2.85 19.95 0 
63 1 2.85 17.1 2.85 
64 1 0 19.95 2.85 
65 1 5.7 17.1 0 
66 1 8.55 19.95 0 
67 1 8.55 17.1 2.85 
68 1 5.7 19.95 2.85 
69 1 11.4 17.1 0 
70 1 14.25 19.95 0 
71 1 14.25 17.1 2.85 
72 1 11.4 19.95 2.85 
73 1 17.1 17.1 0 
74 1 19.95 19.95 0 
75 1 19.95 17.1 2.85 
76 1 17.1 19.95 2.85 
77 1 22.8 17.1 0 
78 1 25.65 19.95 0 
79 1 25.65 17.1 2.85 
80 1 22.8 19.95 2.85 
81 1 0 22.8 0 
82 1 2.85 25.65 0 
83 1 2.85 22.8 2.85 
84 1 0 25.65 2.85 
85 1 5.7 22.8 0 
86 1 8.55 25.65 0 
87 1 8.55 22.8 2.85 
88 1 5.7 25.65 2.85 
89 1 11.4 22.8 0 
90 1 14.25 25.65 0 
91 1 14.25 22.8 2.85 
92 1 11.4 25.65 2.85 
93 1 17.1 22.8 0 
94 1 19.95 25.65 0 
95 1 19.95 22.8 2.85 
96 1 17.1 25.65 2.85 
97 1 22.8 22.8 0 
98 1 25.65 25.65 0 
99 1 25.65 22.8 2.85 
100 1 22.8 25.65 2.85 
101 1 0 0 5.7 
102 1 2.85 2.85 5.7 
103 1 2.85 0 8.55 
104 1 0 2.85 8.55 
105 1 5.7 0 5.7 
106 1 8.55 2.85 5.7 
107 1 8.55 0 8.55 
108 1 5.7 2.85 8.55 
109 1 11.4 0 5.7 
110 1 14.25 2.85 5.7 
111 1 14.25 0 8.55 
112 1 11.4 2.85 8.55 
113 1 17.1 0 5.7 
114 1 19.95 2.85 5.7 
115 1 19.95 0 8.55 
116 1 17.1 2.85 8.55 
117 1 22.8 0 5.7 
118 1 25.65 2.85 5.7 
119 1 25.65 0 8.55 
120 1 22.8 2.85 8.55 
121 1 0 5.7 5.7 
122 1 2.85 8.55 5.7 
123 1 2.85 5.7 8.55 
124 1 0 8.55 8.55 
125 1 5.7 5.7 5.7 
126 1 8.55 8.55 5.7 
127 1 8.55 5.7 8.55 
128 1 5.7 8.55 8.55 
129 1 11.4 5.7 5.7 
130 1 14.25 8.55 5.7 
131 1 14.25 5.7 8.55 
132 1 11.4 8.55 8.55 
133 1 17.1 5.7 5.7 
134 1 19.95 8.55 5.7 
135 1 19.95 5.7 8.55 
136 1 17.1 8.55 8.55 
137 1 22.8 5.7 5.7 
138 1 25.65 8.55 5.7 
139 1 25.65 5.7 8.55 
140 1 22.8 8.55 8.55 
141 1 0 11.4 5.7 
142 1 2.85 14.25 5.7 
143 1 2.85 11.4 8.55 
144 1 0 14.25 8.55 
145 1 5.7 11.4 5.7 
146 1 8.55 14.25 5.7 
147 1 8.55 11.4 8.55 
148 1 5.7 14.25 8.55 
149 1 11.4 11.4 5.7 
150 1 14.25 14.25 5.7 
151 1 14.25 11.4 8.55 
152 1 11.4 14.25 8.55 
153 1 17.1 11.4 5.7 
154 1 19.95 14.25 5.7 
155 1 19.95 11.4 8.55 
156 1 17.1 14.25 8.55 
157 1 22.8 11.4 5.7 
158 1 25.65 14.25 5.7 
159 1 25.65 11.4 8.55 
160 1 22.8 14.25 8.55 
161 1 0 17.1 5.7 
162 1 2.85 19.95 5.7 
163 1 2.85 17.1 8.55 
164 1 0 19.95 8.55 
165 1 5.7 17.1 5.7 
166 1 8.55 19.95 5.7 
167 1 8.55 17.1 8.55 
168 1 5.7 19.95 8.55 
169 1 11.4 17.1 5.7 
170 1 14.25 19.95 5.7 
171 1 14.25 17.1 8.55 
172 1 11.4 19.95 8.55 
173 1 17.1 17.1 5.7 
174 1 19.95 19.95 5.7 
175 1 19.95 17.1 8.55 
176 1 17.1 19.95 8.55 
177 1 22.8 17.1 5.7 
178 1 25.65 19.95 5.7 
179 1 25.65 17.1 8.55 
180 1 22.8 19.95 8.55 
181 1 0 22.8 5.7 
182 1 2.85 25.65 5.7 
183 1 2.85 22.8 8.55 
184 1 0 25.65 8.55 
185 1 5.7 22.8 5.7 
186 1 8.55 25.65 5.7 
187 1 8.55 22.8 8.55 
188 1 5.7 25.65 8.55 
189 1 11.4 22.8 5.7 
190 1 14.25 25.65 5.7 
191 1 14.25 22.8 8.55 
192 1 11.4 25.65 8.55 
193 1 17.1 22.8 5.7 
194 1 19.95 25.65 5.7 
195 1 19.95 22.8 8.55 
196 1 17.1 25.65 8.55 
197 1 22.8 22.8 5.7 
198 1 25.65 25.65 5.7 
199 1 25.65 22.8 8.55 
200 1 22.8 25.65 8.55 
201 1 0 0 11.4 
202 1 2.85 2.85 11.4 
203 1 2.85 0 14.25 
204 1 0 2.85 14.25 
205 1 5.7 0 11.4 
206 1 8.55 2.85 11.4 
207 1 8.55 0 14.25 
208 1 5.7 2.85 14.25 
209 1 11.4 0 11.4 
210 1 14.25 2.85 11.4 
211 1 14.25 0 14.25 
212 1 11.4 2.85 14.25 
213 1 17.1 0 11.4 
214 1 19.95 2.85 11.4 
215 1 19.95 0 14.25 
216 1 17.1 2.85 14.25 
217 1 22.8 0 11.4 
218 1 25.65 2.85 11.4 
219 1 25.65 0 14.25 
220 1 22.8 2.85 14.25 
221 1 0 5.7 11.4 
222 1 2.85 8.55 11.4 
223 1 2.85 5.7 14.25 
224 1 0 8.55 14.25 
225 1 5.7 5.7 11.4 
226 1 8.55 8.55 11.4 
227 1 8.55 5.7 14.25 
228 1 5.7 8.55 14.25 
229 1 11.4 5.7 11.4 
230 1 14.25 8.55 11.4 
231 1 14.25 5.7 14.25 
232 1 11.4 8.55 14.25 
233 1 17.1 5.7 11.4 
234 1 19.95 8.55 11.4 
235 1 19.95 5.7 14.25 
236 1 17.1 8.55 14.25 
237 1 22.8 5.7 11.4 
238 1 25.65 8.55 11.4 
239 1 25.65 5.7 14.25 
240 1 22.8 8.55 14.25 
241 1 0 11.4 11.4 
242 1 2.85 14.25 11.4 
243 1 2.85 11.4 14.25 
244 1 0 14.25 14.25 
245 1 5.7 11.4 11.4 
246 1 8.55 14.25 11.4 
247 1 8.55 11.4 14.25 
248 1 5.7 14.25 14.25 
249 1 11.4 11.4 11.4 
250 1 14.25 14.25 11.4 
251 1 14.25 11.4 14.25 
252 1 11.4 14.25 14.25 
253 1 17.1 11.4 11.4 
254 1 19.95 14.25 11.4 
255 1 19.95 11.4 14.25 
256 1 17.1 14.25 14.25 
257 1 22.8 11.4 11.4 
258 1 25.65 14.25 11.4 
259 1 25.65 11.4 14.25 
260 1 22.8 14.25 14.25 
261 1 0 17.1 11.4 
262 1 2.85 19.95 11.4 
263 1 2.85 17.1 14.25 
264 1 0 19.95 14.25 
265 1 5.7 17.1 11.4 
266 1 8.55 19.95 11.4 
267 1 8.55 17.1 14.25 
268 1 5.7 19.95 14.25 
269 1 11.4 17.1 11.4 
270 1 14.25 19.95 11.4 
271 1 14.25 17.1 14.25 
272 1 11.4 19.95 14.25 
273 1 17.1 17.1 11.4 
274 1 19.95 19.95 11.4 
275 1 19.95 17.1 14.25 
276 1 17.1 19.95 14.25 
277 1 22.8 17.1 11.4 
278 1 25.65 19.95 11.4 
279 1 25.65 17.1 14.25 
280 1 22.8 19.95 14.25 
281 1 0 22.8 11.4 
282 1 2.85 25.65 11.4 
283 1 2.85 22.8 14.25 
284 1 0 25.65 14.25 
285 1 5.7 22.8 11.4 
286 1 8.55 25.65 11.4 
287 1 8.55 22.8 14.25 
288 1 5.7 25.65 14.25 
289 1 11.4 22.8 11.4 
290 1 14.25 25.65 11.4 
291 1 14.25 22.8 14.25 
292 1 11.4 25.65 14.25 
293 1 17.1 22.8 11.4 
294 1 19.95 25.65 11.4 
295 1 19.95 22.8 14.25 
296 1 17.1 25.65 14.25 
297 1 22.8 22.8 11.4 
298 1 25.65 25.65 11.4 
299 1 25.65 22.8 14.25 
300 1 22.8 25.65 14.25 
301 1 0 0 17.1 
302 1 2.85 2.85 17.1 
303 1 2.85 0 19.95 
304 1 0 2.85 19.95 
305 1 5.7 0 17.1 
306 1 8.55 2.85 17.1 
307 1 8.55 0 19.95 
308 1 5.7 2.85 19.95 
309 1 11.4 0 17.1 
310 1 14.25 2.85 17.1 
311 1 14.25 0 19.95 
312 1 11.4 2.85 19.95 
313 1 17.1 0 17.1 
314 1 19.95 2.85 17.1 
315 1 19.95 0 19.95 
316 1 17.1 2.85 19.95 
317 1 22.8 0 17.1 
318 1 25.65 2.85 17.1 
319 1 25.65 0 19.95 
320 1 22.8 2.85 19.95 
321 1 0 5.7 17.1 
322 1 2.85 8.55 17.1 
323 1 2.85 5.7 19.95 
324 1 0 8.55 19.95 
325 1 5.7 5.7 17.1 
326 1 8.55 8.55 17.1 
327 1 8.55 5.7 19.95 
328 1 5.7 8.55 19.95 
329 1 11.4 5.7 17.1 
330 1 14.25 8.55 17.1 
331 1 14.25 5.7 19.95 
332 1 11.4 8.55 19.95 
333 1 17.1 5.7 17.1 
334 1 19.95 8.55 17.1 
335 1 19.95 5.7 19.95 
336 1 17.1 8.55 19.95 
337 1 22.8 5.7 17.1 
338 1 25.65 8.55 17.1 
339 1 25.65 5.7 19.95 
340 1 22.8 8.55 19.95 
341 1 0 11.4 17.1 
342 1 2.85 14.25 17.1 
343 1 2.85 11.4 19.95 
344 1 0 14.25 19.95 
345 1 5.7 11.4 17.1 
346 1 8.55 14.25 17.1 
347 1 8.55 11.4 19.95 
348 1 5.7 14.25 19.95 
349 1 11.4 11.4 17.1 
350 1 14.25 14.25 17.1 
351 1 14.25 11.4 19.95 
352 1 11.4 14.25 19.95 
353 1 17.1 11.4 17.1 
354 1 19.95 14.25 17.1 
355 1 19.95 11.4 19.95 
356 1 17.1 14.25 19.95 
357 1 22.8 11.4 17.1 
358 1 25.65 14.25 17.1 
359 1 25.65 11.4 19.95 
360 1 22.8 14.25 19.95 
361 1 0 17.1 17.1 
362 1 2.85 19.95 17.1 
363 1 2.85 17.1 19.95 
364 1 0 19.95 19.95 
365 1 5.7 17.1 17.1 
366 1 8.55 19.95 17.1 
367 1 8.55 17.1 19.95 
368 1 5.7 19.95 19.95 
369 1 11.4 17.1 17.1 
370 1 14.25 19.95 17.1 
371 1 14.25 17.1 19.95 
372 1 11.4 19.95 19.95 
373 1 17.1 17.1 17.1 
374 1 19.95 19.95 17.1 
375 1 19.95 17.1 19.95 
376 1 17.1 19.95 19.95 
377 1 22.8 17.1 17.1 
378 1 25.65 19.95 17.1 
379 1 25.65 17.1 19.95 
380 1 22.8 19.95 19.95 
381 1 0 22.8 17.1 
382 1 2.85 25.65 17.1 
383 1 2.85 22.8 19.95 
384 1 0 25.65 19.95 
385 1 5.7 22.8 17.1 
386 1 8.55 25.65 17.1 
387 1 8.55 22.8 19.95 
388 1 5.7 25.65 19.95 
389 1 11.4 22.8 17.1 
390 1 14.25 25.65 17.1 
391 1 14.25 22.8 19.95 
392 1 11.4 25.65 19.95 
393 1 17.1 22.8 17.1 
394 1 19.95 25.65 17.1 
395 1 19.95 22.8 19.95 
396 1 17.1 25.65 19.95 
397 1 22.8 22.8 17.1 
398 1 25.65 25.65 17.1 
399 1 25.65 22.8 19.95 
400 1 22.8 25.65 19.95 
401 1 0 0 22.8 
402 1 2.85 2.85 22.8 
403 1 2.85 0 25.65 
404 1 0 2.85 25.65 
405 1 5.7 0 22.8 
406 1 8.55 2.85 22.8 
407 1 8.55 0 25.65 
408 1 5.7 2.85 25.65 
409 1 11.4 0 22.8 
410 1 14.25 2.85 22.8 
411 1 14.25 0 25.65 
412 1 11.4 2.85 25.65 
413 1 17.1 0 22.8 
414 1 19.95 2.85 22.8 
415 1 19.95 0 25.65 
416 1 17.1 2.85 25.65 
417 1 22.8 0 22.8 
418 1 25.65 2.85 22.8 
419 1 25.65 0 25.65 
420 1 22.8 2.85 25.65 
421 1 0 5.7 22.8 
422 1 2.85 8.55 22.8 
423 1 2.85 5.7 25.65 
424 1 0 8.55 25.65 
425 1 5.7 5.7 22.8 
426 1 8.55 8.55 22.8 
427 1 8.55 5.7 25.65 
428 1 5.7 8.55 25.65 
429 1 11.4 5.7 22.8 
430 1 14.25 8.55 22.8 
431 1 14.25 5.7 25.65 
432 1 11.4 8.55 25.65 
433 1 17.1 5.7 22.8 
434 1 19.95 8.55 22.8 
435 1 19.95 5.7 25.65 
436 1 17.1 8.55 25.65 
437 1 22.8 5.7 22.8 
438 1 25.65 8.55 22.8 
439 1 25.65 5.7 25.65 
440 1 22.8 8.55 25.65 
441 1 0 11.4 22.8 
442 1 2.85 14.25 22.8 
443 1 2.85 11.4 25.65 
444 1 0 14.25 25.65 
445 1 5.7 11.4 22.8 
446 1 8.55 14.25 22.8 
447 1 8.55 11.4 25.65 
448 1 5.7 14.25 25.65 
449 1 11.4 11.4 22.8 
450 1 14.25 14.25 22.8 
451 1 14.25 11.4 25.65 
452 1 11.4 14.25 25.65 
453 1 17.1 11.4 22.8 
454 1 19.95 14.25 22.8 
455 1 19.95 11.4 25.65 
456 1 17.1 14.25 25.65 
457 1 22.8 11.4 22.8 
458 1 25.65 14.25 22.8 
459 1 25.65 11.4 25.65 
460 1 22.8 14.25 25.65 
461 1 0 17.1 22.8 
462 1 2.85 19.95 22.8 
463 1 2.85 17.1 25.65 
464 1 0 19.95 25.65 
465 1 5.7 17.1 22.8 
466 1 8.55 19.95 22.8 
467 1 8.55 17.1 25.65 
468 1 5.7 19.95 25.65 
469 1 11.4 17.1 22.8 
470 1 14.25 19.95 22.8 
471 1 14.25 17.1 25.65 
472 1 11.4 19.95 25.65 
473 1 17.1 17.1 22.8 
474 1 19.95 19.95 22.8 
475 1 19.95 17.1 25.65 
476 1 17.1 19.95 25.65 
477 1 22.8 17.1 22.8 
478 1 25.65 19.95 22.8 
479 1 25.65 17.1 25.65 
480 1 22.8 19.95 25.65 
481 1 0 22.8 22.8 
482 1 2.85 25.65 22.8 
483 1 2.85 22.8 25.65 
484 1 0 25.65 25.65 
485 1 5.7 22.8 22.8 
486 1 8.55 25.65 22.8 
487 1 8.55 22.8 25.65 
488 1 5.7 25.65 25.65 
489 1 11.4 22.8 22.8 
490 1 14.25 25.65 22.8 
491 1 14.25 22.8 25.65 
492 1 11.4 25.65 25.65 
493 1 17.1 22.8 22.8 
494 1 19.95 25.65 22.8 
495 1 19.95 22.8 25.65 
496 1 17.1 25.65 25.65 
497 1 22.8 22.8 22.8 
498 1 25.65 25.65 22.8 
499 1 25.65 22.8 25.65 
500 1 22.8 25.65 25.65 
ITEM: TIMESTEP
1000
ITEM: NUMBER OF ATOMS
500
ITEM: BOX BOUNDS pp pp pp
0.0000000000000000e+00 2.8500000000000000e+01
0.0000000000000000e+00 2.8500000000000000e+01
0.0000000000000000e+00 2.8500000000000000e+01
ITEM: ATOMS id type x y z 
1 1 1.15954 0.849877 2.42208 
2 1 3.72838 2.41704 28.0003 
3 1 3.20462 27.4806 4.87715 
4 1 27.3816 3.87457 2.71247 
5 1 6.39857 0.0509928 0.105075 
6 1 7.14528 3.33423 27.7518 
7 1 8.03624 0.539012 4.00715 
8 1 4.77617 2.21115 3.00837 
9 1 10.4819 1.26506 0.529357 
10 1 13.0044 3.82239 0.491567 
11 1 13.2885 0.668013 3.30473 
12 1 10.0465 3.60947 3.16369 
13 1 16.151 1.28016 27.74 
14 1 19.9161 2.89938 0.505388 
15 1 19.8939 27.8853 2.0357 
16 1 16.6323 1.91302 2.69118 
17 1 22.2785 0.118618 28.2333 
18 1 26.1626 1.49779 28.114 
19 1 25.4595 0.154084 2.981 
20 1 22.2339 2.05112 3.10671 
21 1 28.1933 5.55078 28.2407 
22 1 2.10491 8.23835 28.4731 
23 1 1.72969 5.36847 3.32081 
24 1 26.9663 7.67516 2.76511 
25 1 4.46374 6.10941 0.00220781 
26 1 8.44453 10.2524 27.6557 
27 1 7.6567 6.16905 3.47237 
28 1 5.63576 8.82873 2.28657 
29 1 10.3652 7.2595 0.971863 
30 1 13.8606 8.5545 27.9146 
31 1 13.9866 6.33965 2.56651 
32 1 12.1895 9.24535 3.79566 
33 1 16.6429 4.85508 0.126643 
34 1 21.4125 7.87934 27.8045 
35 1 19.8232 6.57722 1.91995 
36 1 17.1275 8.85477 2.57114 
37 1 23.1427 3.78201 28.1931 
38 1 25.2679 8.12748 27.8613 
39 1 24.0374 5.12991 3.19824 
40 1 23.4687 8.98697 3.02673 
41 1 27.8039 11.0003 26.9616 
42 1 2.71681 14.51 0.0458053 
43 1 2.07812 9.88892 3.04724 
44 1 28.4584 14.3077 2.56734 
45 1 5.12624 11.5285 0.142099 
46 1 7.89444 14.1425 0.0760841 
47 1 7.74779 12.2007 2.8123 
48 1 4.66544 14.5155 3.37221 
49 1 12.2268 11.81 28.3127 
50 1 14.1825 15.4097 0.128373 
51 1 14.5903 11.4859 2.64563 
52 1 11.3888 14.0442 2.94975 
53 1 16.6945 12.6112 27.4983 
54 1 20.2672 13.9084 27.2225 
55 1 20.6433 11.3001 1.09908 
56 1 17.5421 13.2941 2.93302 
57 1 24.2671 11.2015 26.9472 
58 1 26.2428 14.6627 0.171661 
59 1 26.1274 10.9424 1.62691 
60 1 23.2319 13.5122 1.98596 
61 1 0.849359 17.6441 27.8327 
62 1 4.38768 20.4937 28.073 
63 1 2.04721 17.2168 2.35953 
64 1 0.706527 20.7814 1.72724 
65 1 5.10684 16.7417 0.513553 
66 1 7.70243 19.0066 27.925 
67 1 8.45956 16.421 2.76941 
68 1 6.86784 19.913 2.74962 
69 1 11.3592 17.3393 28.2054 
70 1 13.4429 20.3876 27.8499 
71 1 13.4072 16.8691 3.8194 
72 1 10.3401 20.4929 3.01345 
73 1 15.9206 18.5092 1.1294 
74 1 19.8027 20.2912 0.345093 
75 1 19.4483 16.4915 1.22288 
76 1 17.625 19.5761 4.07647 
77 1 22.4745 17.8604 -0.00283299 
78 1 25.6848 19.9619 28.0874 
79 1 26.8028 17.4854 2.07395 
80 1 23.3165 20.4642 1.89025 
81 1 0.091252 23.0614 27.6291 
82 1 2.54218 25.2797 0.109154 
83 1 2.42292 23.2786 3.36055 
84 1 27.5297 25.9403 2.7734 
85 1 6.9348 22.621 0.0363048 
86 1 9.25693 26.3451 0.780102 
87 1 8.44812 23.7606 3.43752 
88 1 5.90155 25.8971 2.45226 
89 1 10.699 22.6915 27.492 
90 1 12.8067 25.7657 0.108221 
91 1 13.717 21.0495 2.81888 
92 1 11.5113 25.8562 3.33162 
93 1 16.4068 22.5668 0.990244 
94 1 18.9622 25.2126 0.528588 
95 1 19.8813 22.275 3.35376 
96 1 16.0317 26.4788 2.1035 
97 1 22.4011 22.352 27.7611 
98 1 25.3859 26.3543 28.4007 
99 1 25.7145 23.1583 1.56141 
100 1 22.8102 25.3036 2.36499 
101 1 27.9744 28.184 5.23222 
102 1 1.47278 2.71628 5.32148 
103 1 2.47827 27.8339 9.38166 
104 1 0.291781 2.38945 8.98819 
105 1 5.58112 0.817794 7.02976 
106 1 8.95883 3.3105 7.10092 
107 1 8.25237 28.258 9.0891 
108 1 6.71335 2.46598 10.453 
109 1 11.0014 0.741162 6.28925 
110 1 14.692 4.13466 5.63655 
111 1 14.3519 1.44871 7.67625 
112 1 11.8205 3.42576 8.96487 
113 1 16.7284 27.8019 5.39508 
114 1 19.017 1.96834 6.01393 
115 1 19.4509 27.6622 7.95684 
116 1 17.6846 4.39331 7.9558 
117 1 22.1595 27.9928 4.98182 
118 1 25.3697 2.40738 6.1804 
119 1 24.5741 -0.00559913 9.40348 
120 1 22.5217 3.31882 8.23814 
121 1 27.8275 5.25397 6.32558 
122 1 2.52965 7.82538 5.95766 
123 1 4.57959 5.46225 8.87156 
124 1 28.4453 8.23192 7.82342 
125 1 4.31546 5.1984 5.33932 
126 1 8.45534 8.77736 5.851 
127 1 9.05421 6.64454 8.69683 
128 1 5.92903 8.71999 8.29345 
129 1 11.0932 6.31709 5.74471 
130 1 14.7857 7.97543 5.96663 
131 1 13.804 6.3604 8.69842 
132 1 11.8126 9.01645 7.87429 
133 1 17.6288 5.6114 4.80808 
134 1 20.2626 9.17268 4.67211 
135 1 21.9089 6.74336 8.70484 
136 1 18.6555 7.83912 8.18703 
137 1 21.0086 5.54547 5.0201 
138 1 24.422 7.47087 6.11755 
139 1 25.3944 5.46342 8.81711 
140 1 23.4508 10.1425 8.85532 
141 1 0.862465 12.2481 5.53783 
142 1 2.51851 15.3112 5.61224 
143 1 2.86666 10.8235 8.33446 
144 1 0.116497 15.1771 8.35126 
145 1 4.76153 11.524 5.19664 
146 1 7.57804 14.0287 5.62242 
147 1 8.26912 11.2361 8.7816 
148 1 5.56778 13.619 8.41919 
149 1 11.0931 12.9292 6.21493 
150 1 14.5935 13.7911 5.4453 
151 1 14.7237 11.5579 8.39404 
152 1 9.79884 14.2917 9.23871 
153 1 17.1222 10.709 5.65737 
154 1 20.463 12.7261 4.88533 
155 1 20.1741 10.8088 8.06047 
156 1 17.7577 13.8185 7.99795 
157 1 23.7384 11.748 5.6504 
158 1 25.8624 14.6869 5.48261 
159 1 26.104 12.0352 7.8601 
160 1 22.5966 14.2003 7.8901 
161 1 27.5922 17.7527 5.61722 
162 1 2.69423 19.7321 5.01789 
163 1 2.66625 17.8507 7.99717 
164 1 27.3027 19.2144 8.66153 
165 1 5.60308 17.1783 5.82238 
166 1 7.71967 20.5962 6.50358 
167 1 7.79435 16.9404 9.0473 
168 1 4.14829 21.5458 7.96193 
169 1 11.421 17.5392 7.19727 
170 1 14.1624 20.049 6.22348 
171 1 15.6679 16.7074 7.98748 
172 1 11.3655 20.4576 8.67744 
173 1 17.7248 15.9788 5.3103 
174 1 21.5037 19.2221 5.00857 
175 1 20.4701 17.4534 7.87586 
176 1 17.3192 19.6308 7.62244 
177 1 21.4328 15.9604 4.8339 
178 1 24.9194 19.9318 5.01448 
179 1 23.8901 17.5835 7.55208 
180 1 22.0067 20.5588 8.46654 
181 1 27.9084 21.707 4.68889 
182 1 0.80172 24.9732 5.54977 
183 1 0.565167 22.2675 7.74067 
184 1 28.2307 25.6673 9.00861 
185 1 5.44704 23.0124 5.16905 
186 1 8.27042 25.7575 6.11765 
187 1 7.79845 22.1059 9.70328 
188 1 5.12121 25.2943 9.21628 
189 1 11.4308 22.5209 5.73884 
190 1 13.1735 25.7672 6.32083 
191 1 13.4268 23.5445 8.8864 
192 1 10.348 25.3977 8.74656 
193 1 16.2722 23.1918 5.97081 
194 1 19.4765 25.5327 4.68263 
195 1 18.1915 24.3945 8.89672 
196 1 15.8968 27.0452 8.64796 
197 1 24.2417 23.4342 5.1715 
198 1 25.5043 26.5683 6.76055 
199 1 25.3667 22.4214 9.21013 
200 1 22.7796 25.1276 8.73321 
201 1 26.9077 0.210377 12.1886 
202 1 3.0262 2.83262 12.4487 
203 1 1.96742 27.9781 13.9973 
204 1 28.3309 2.79712 14.1934 
205 1 5.20903 0.0531015 12.5672 
206 1 9.78638 2.84894 12.28 
207 1 8.59 27.5572 13.9773 
208 1 6.19112 2.51678 14.3812 
209 1 11.3658 28.18 10.3363 
210 1 14.4485 3.55002 11.5429 
211 1 15.1731 0.228365 12.6975 
212 1 12.6661 2.63371 14.3952 
213 1 17.1561 1.34942 9.84386 
214 1 19.4266 3.76457 11.1234 
215 1 19.5191 0.387791 13.8998 
216 1 16.9992 2.73571 14.0021 
217 1 21.2176 0.658289 10.8292 
218 1 26.0125 3.60056 11.6753 
219 1 25.29 27.48 16.0686 
220 1 23.4372 2.57536 14.7002 
221 1 0.830792 5.80322 11.9135 
222 1 3.39669 7.88795 11.153 
223 1 3.55021 5.91556 14.7253 
224 1 27.9809 8.30467 14.5407 
225 1 6.29942 5.34778 12.1658 
226 1 8.08303 8.30957 12.1663 
227 1 9.08457 5.96845 14.9855 
228 1 5.99692 8.21637 14.9622 
229 1 11.7112 5.55374 12.1557 
230 1 14.4255 9.33532 11.0305 
231 1 13.8323 6.52287 14.8429 
232 1 11.1396 8.78965 13.6311 
233 1 16.7643 6.00876 10.8275 
234 1 20.9732 9.31721 11.2326 
235 1 20.2498 5.7406 14.3549 
236 1 17.6787 8.24416 14.1056 
237 1 23.078 6.56133 12.1558 
238 1 25.8206 8.85411 11.012 
239 1 25.1284 6.47859 15.0975 
240 1 22.9856 9.46484 14.1257 
241 1 0.363872 10.2262 10.7611 
242 1 1.85189 13.1563 11.1992 
243 1 2.12079 11.2026 14.459 
244 1 0.509574 14.5067 14.647 
245 1 5.09347 10.5562 12.4634 
246 1 7.88765 13.0835 11.9044 
247 1 7.78922 11.436 14.708 
248 1 4.44998 13.9066 14.2859 
249 1 11.408 11.8995 11.5679 
250 1 14.2439 14.7059 10.2191 
251 1 14.2233 12.1933 13.6081 
252 1 10.5069 14.8148 14.3688 
253 1 17.735 10.3552 11.0003 
254 1 20.4814 13.0569 10.3043 
255 1 20.2602 12.224 14.0137 
256 1 17.6681 14.1265 12.7559 
257 1 23.6238 12.0565 11.7336 
258 1 25.2241 14.8688 10.5181 
259 1 25.8663 11.3733 14.2256 
260 1 23.6764 13.9023 14.9931 
261 1 0.41017 16.4991 11.5976 
262 1 4.69416 17.2573 10.8682 
263 1 2.74584 17.1413 14.2671 
264 1 27.9731 19.9413 14.4556 
265 1 7.20511 16.066 13.2533 
266 1 7.44167 19.3831 11.6825 
267 1 9.23127 18.3993 15.8845 
268 1 5.44522 19.3234 14.778 
269 1 10.8858 17.3575 11.4956 
270 1 14.4311 18.7942 10.3568 
271 1 14.9972 16.5589 13.2372 
272 1 12.9893 19.9385 13.5806 
273 1 18.3475 17.104 10.5933 
274 1 20.9399 19.63 11.7934 
275 1 20.0052 16.0703 14.4527 
276 1 17.7018 18.7769 13.8046 
277 1 22.2886 16.2282 11.3075 
278 1 25.37 19.5286 11.7633 
279 1 25.9735 16.5394 14.5781 
280 1 22.3013 19.5452 14.8775 
281 1 1.3491 20.7212 11.1387 
282 1 1.51923 25.1003 12.0756 
283 1 1.78234 22.6105 15.1166 
284 1 27.6275 25.6967 14.1956 
285 1 4.48279 22.9072 11.7615 
286 1 8.18151 25.1029 11.8254 
287 1 7.31523 22.162 14.7001 
288 1 4.90956 25.4742 14.4272 
289 1 10.2394 22.0564 12.7919 
290 1 14.8008 23.6072 12.3266 
291 1 14.5811 22.2793 15.9561 
292 1 11.8021 25.1599 13.065 
293 1 18.1509 20.9285 10.7446 
294 1 19.378 26.2704 11.4256 
295 1 20.5433 22.6899 14.8175 
296 1 17.6582 25.0772 14.3559 
297 1 22.5693 22.5455 11.8355 
298 1 25.133 25.5536 11.6954 
299 1 25.2078 22.7406 14.4829 
300 1 22.7167 27.4599 13.8874 
301 1 0.267373 0.240514 17.7966 
302 1 3.34731 2.68586 16.7719 
303 1 3.2152 0.0698346 19.9108 
304 1 0.0380481 2.25215 20.838 
305 1 6.43989 0.12157 17.2154 
306 1 9.25188 2.87226 17.8186 
307 1 9.08935 28.1162 19.1364 
308 1 5.95188 2.84535 19.4239 
309 1 12.977 27.5844 15.8886 
310 1 14.5406 2.74901 17.7267 
311 1 15.3329 28.0427 19.3616 
312 1 12.1624 0.913952 19.1203 
313 1 16.4785 28.3043 16.0072 
314 1 19.7006 2.78186 17.1017 
315 1 19.1711 0.498955 19.625 
316 1 16.9305 2.89332 20.4573 
317 1 22.5679 0.350198 17.6288 
318 1 25.8664 2.22983 17.4335 
319 1 25.9105 0.270033 20.1432 
320 1 22.4228 3.86931 18.5774 
321 1 0.473728 5.03018 16.7671 
322 1 3.21987 9.42352 17.0904 
323 1 2.97688 5.55313 19.7231 
324 1 28.433 8.33037 19.3116 
325 1 6.04783 5.85116 17.6561 
326 1 9.38113 8.34977 17.5674 
327 1 9.2416 5.64312 20.0827 
328 1 5.72829 8.96926 19.4488 
329 1 11.9466 5.23833 18.1824 
330 1 14.5765 9.19397 17.007 
331 1 15.3496 6.55011 19.3706 
332 1 12.0347 8.62841 20.2643 
333 1 18.8714 6.64429 18.1194 
334 1 19.4535 9.88071 16.814 
335 1 19.7938 5.21708 21.1831 
336 1 16.8617 9.23182 20.2005 
337 1 22.0196 7.47268 16.5283 
338 1 25.4202 9.64067 17.3076 
339 1 26.2085 5.54928 18.6029 
340 1 21.8222 8.04899 20.4925 
341 1 28.2456 11.6359 17.0686 
342 1 2.78942 14.718 17.4685 
343 1 3.05199 11.9257 20.0257 
344 1 0.287054 14.5361 19.3495 
345 1 5.7415 12.1832 17.2841 
346 1 8.31167 14.3089 17.4381 
347 1 9.48267 11.7466 20.4777 
348 1 5.99962 14.3741 20.0035 
349 1 11.6814 11.5982 16.4079 
350 1 14.0165 14.3611 16.5894 
351 1 14.291 11.85 19.6771 
352 1 11.3897 14.2467 18.7684 
353 1 16.7323 11.8301 16.6163 
354 1 20.4457 13.6034 17.1975 
355 1 19.8828 11.2686 19.8814 
356 1 16.8297 13.7153 20.3921 
357 1 22.6896 10.7553 17.8202 
358 1 25.5233 13.7319 18.2182 
359 1 26.0107 10.9165 20.6697 
360 1 22.8376 14.0911 20.6782 
361 1 28.4401 17.0028 17.2166 
362 1 3.06524 18.4464 17.9936 
363 1 2.81036 16.4273 21.0804 
364 1 -0.00559766 18.6561 19.9669 
365 1 5.82321 16.7863 16.982 
366 1 8.30493 20.9982 17.8278 
367 1 8.7446 17.5806 19.1691 
368 1 6.00766 19.4772 20.1406 
369 1 12.5491 17.6076 16.4183 
370 1 15.6513 19.2205 17.6956 
371 1 14.7329 16.3193 20.4257 
372 1 11.5475 20.3263 20.9035 
373 1 17.3021 15.4382 16.9527 
374 1 19.6748 19.7022 18.3753 
375 1 19.2523 16.4498 19.6943 
376 1 17.6105 20.4551 20.6236 
377 1 22.8389 16.8699 16.9358 
378 1 25.769 19.896 17.2432 
379 1 25.254 17.09 20.2426 
380 1 22.8782 19.9436 20.1109 
381 1 0.324247 21.7121 18.1456 
382 1 2.28187 25.8793 16.3396 
383 1 2.51932 21.9416 20.7263 
384 1 0.486373 25.5593 20.134 
385 1 4.35706 22.0341 17.5763 
386 1 9.18384 25.4458 16.709 
387 1 9.46469 23.0882 20.4804 
388 1 5.01093 25.5866 19.577 
389 1 11.2213 22.2953 16.5711 
390 1 15.6053 25.3321 17.1558 
391 1 14.5717 22.5233 19.6193 
392 1 12.3635 25.6671 18.9471 
393 1 17.6836 22.2199 17.382 
394 1 21.1348 25.4855 16.5882 
395 1 20.2253 22.9373 20.9103 
396 1 17.6546 25.4948 19.9649 
397 1 23.0182 22.3126 17.1462 
398 1 26.2752 24.5913 17.6796 
399 1 26.3832 22.4193 20.3992 
400 1 22.3724 26.2158 20.3858 
401 1 0.559438 27.7208 23.4354 
402 1 3.0319 3.12385 22.3664 
403 1 3.76137 27.6552 26.2276 
404 1 0.330228 3.38322 25.5296 
405 1 6.98668 0.323965 22.1584 
406 1 7.91998 4.16588 23.7156 
407 1 8.89194 0.496217 25.4485 
408 1 5.10344 2.13884 25.1069 
409 1 10.7813 1.55849 22.3441 
410 1 14.46 1.7476 23.2299 
411 1 12.7177 0.588455 26.2644 
412 1 10.906 3.93816 26.0222 
413 1 17.5228 27.7285 23.3425 
414 1 19.9049 2.07169 22.9046 
415 1 19.1123 0.0691682 26.5176 
416 1 17.3483 3.7018 25.4969 
417 1 23.0477 0.817891 22.1357 
418 1 24.7866 3.64425 21.3862 
419 1 26.3749 1.39181 23.7248 
420 1 23.0281 1.86377 25.3217 
421 1 28.0536 5.37424 22.3036 
422 1 2.28819 8.36776 22.0246 
423 1 3.06707 5.76709 25.1513 
424 1 28.132 8.03567 25.2617 
425 1 5.16721 6.43253 22.1056 
426 1 9.11236 8.03176 22.7932 
427 1 8.14226 6.4571 26.3084 
428 1 5.6249 9.07191 25.3459 
429 1 11.9404 5.24469 22.2128 
430 1 14.0618 8.33282 23.0287 
431 1 14.1023 4.95643 25.7753 
432 1 11.387 8.57852 25.715 
433 1 16.4739 6.26775 22.4972 
434 1 19.0791 8.0297 23.654 
435 1 20.4612 5.17962 26.2652 
436 1 17.9553 8.19213 26.736 
437 1 22.4708 5.29107 23.0308 
438 1 24.9927 7.66482 22.021 
439 1 25.5318 5.03519 24.8373 
440 1 23.138 8.09975 24.6418 
441 1 0.294081 11.4551 22.6103 
442 1 3.27196 13.4553 23.7988 
443 1 2.54838 10.2972 25.3274 
444 1 0.480945 14.3162 26.0519 
445 1 6.44853 11.27 22.2487 
446 1 8.94193 14.8746 21.502 
447 1 9.23347 12.1057 24.7798 
448 1 6.25547 13.2296 25.3276 
449 1 12.0502 11.5481 22.5947 
450 1 15.2011 14.2557 23.0457 
451 1 14.4104 11.6873 25.2584 
452 1 11.5142 14.6446 24.9082 
453 1 18.1045 11.6808 23.9134 
454 1 19.999 14.7672 22.8104 
455 1 20.6153 10.4696 25.9775 
456 1 17.021 16.0096 27.0063 
457 1 22.656 11.13 22.0244 
458 1 26.4457 14.046 22.6185 
459 1 25.7854 10.822 24.0633 
460 1 24.0649 14.1637 25.1039 
461 1 28.4829 16.4399 23.6951 
462 1 4.13262 19.5101 23.1096 
463 1 4.6988 16.7082 25.5604 
464 1 0.72069 20.1753 25.1399 
465 1 6.10068 16.6656 22.2232 
466 1 8.04792 19.4873 22.9808 
467 1 8.84851 16.6341 25.0731 
468 1 6.37928 21.7583 25.0788 
469 1 11.0249 17.1684 22.3624 
470 1 15.0181 20.2507 23.479 
471 1 13.8869 17.5316 25.2838 
472 1 11.6283 20.3649 24.453 
473 1 16.8818 17.2496 22.8521 
474 1 20.277 19.7115 22.3856 
475 1 20.0505 17.393 25.3939 
476 1 17.5333 19.9021 26.1647 
477 1 22.6871 17.1049 22.8338 
478 1 25.5358 19.6098 23.2671 
479 1 26.0007 17.025 26.2553 
480 1 22.8294 19.9767 25.4695 
481 1 0.258284 24.0444 24.0853 
482 1 3.6145 25.9568 22.9076 
483 1 2.94338 22.9973 26.0934 
484 1 0.408928 27.9526 27.4386 
485 1 6.42475 23.7183 22.2107 
486 1 10.0846 26.262 22.0928 
487 1 9.36131 23.1457 23.9111 
488 1 7.08141 25.2593 25.931 
489 1 13.081 23.6124 22.5386 
490 1 13.2394 27.1783 22.6343 
491 1 14.3273 23.1907 25.4791 
492 1 11.2339 25.903 25.1741 
493 1 17.2849 23.3418 23.0189 
494 1 20.5749 25.7814 23.4272 
495 1 20.0212 22.67 25.465 
496 1 17.4861 25.2415 25.9649 
497 1 23.4254 22.3184 22.9319 
498 1 24.8399 26.2993 24.1262 
499 1 25.5025 23.4615 26.5478 
500 1 21.5677 25.7212 26.6546 
ITEM: TIMESTEP
2000
ITEM: NUMBER OF ATOMS
500
ITEM: BOX BOUNDS pp pp pp
0.0000000000000000e+00 2.8500000000000000e+01
0.0000000000000000e+00 2.8500000000000000e+01
0.0000000000000000e+00 2.8500000000000000e+01
ITEM: ATOMS id type x y z 
1 1 1.00871 0.873932 3.09952 
8 1 5.24394 0.327405 4.0055 
23 1 1.36802 4.11205 3.72717 
102 1 2.81125 2.03681 6.05561 
125 1 5.15577 4.65361 4.18408 
5 1 6.59777 0.00858022 0.329505 
7 1 8.87535 28.3737 3.95692 
9 1 10.4881 0.721686 0.591293 
12 1 9.08473 4.11075 2.37118 
10 1 13.2208 3.72988 0.326312 
11 1 12.1851 1.09592 3.26741 
16 1 16.8627 2.19387 2.41152 
33 1 16.9426 5.54949 0.897365 
110 1 13.1236 2.87912 6.19712 
14 1 19.5351 3.04303 28.2552 
20 1 21.1883 2.51951 2.85136 
133 1 16.431 7.20246 5.43422 
137 1 21.5685 4.58375 6.26032 
4 1 26.5624 4.11805 1.91107 
19 1 25.6487 28.2284 2.97825 
39 1 23.1973 5.60093 3.32747 
25 1 4.83307 5.66839 0.939778 
28 1 6.11791 9.70911 2.65648 
43 1 2.36693 9.27662 1.69605 
27 1 7.99083 6.93163 4.21487 
29 1 9.87512 7.36823 1.11042 
31 1 12.8212 6.43158 3.02822 
32 1 9.57003 10.6364 3.8444 
35 1 19.9711 5.7752 2.29039 
36 1 17.2979 9.05336 1.02253 
55 1 20.1523 10.4994 1.7554 
134 1 21.1392 8.24445 5.16717 
153 1 16.962 10.7608 4.06746 
24 1 27.52 7.29862 3.45916 
40 1 24.225 9.712 3.28568 
59 1 27.7204 11.3926 3.07186 
42 1 1.16668 12.6095 0.268199 
45 1 4.63869 12.8729 28.2569 
48 1 3.28809 12.158 3.77495 
65 1 6.59463 16.3798 2.0317 
141 1 0.279406 12.6785 6.37938 
142 1 3.28688 15.5694 6.16326 
145 1 4.38911 8.96564 5.74344 
46 1 9.16322 14.5489 27.5136 
47 1 7.28563 12.9912 2.74142 
52 1 11.2827 13.9822 2.85434 
67 1 10.1249 17.8802 3.84882 
146 1 7.95971 14.4671 5.52545 
50 1 14.6649 14.8491 1.12694 
51 1 13.1735 11.1178 2.21097 
71 1 14.1272 17.4168 3.59551 
150 1 15.2125 13.7549 5.62933 
56 1 18.1676 13.9532 2.67961 
75 1 19.466 17.9318 1.40993 
154 1 20.5748 12.378 4.94289 
173 1 18.2017 16.2987 5.62603 
177 1 23.6223 16.5233 4.86694 
44 1 0.885048 15.6289 2.52835 
58 1 26.3401 14.1122 0.961327 
60 1 21.8715 14.5637 2.33516 
157 1 24.503 12.9081 4.44955 
158 1 26.7644 15.6261 5.10728 
63 1 2.59259 18.6137 4.19708 
64 1 0.876257 20.8099 1.16141 
162 1 1.85432 22.0111 6.55233 
68 1 4.91811 20.3982 2.06981 
72 1 9.53438 19.7892 0.85302 
85 1 6.48903 22.8827 27.7832 
73 1 15.7118 18.4458 0.747346 
91 1 12.1674 20.8136 3.45766 
93 1 14.1205 23.2919 2.27793 
74 1 20.0056 21.1342 27.483 
76 1 16.4576 19.5606 4.02016 
95 1 18.5224 22.3424 2.87959 
174 1 19.6813 19.3152 5.49128 
79 1 27.0435 18.3083 2.69769 
80 1 22.1436 19.9996 2.45399 
161 1 28.3184 18.4831 5.78704 
178 1 24.7864 20.2395 5.94938 
181 1 27.3529 21.7386 3.85849 
3 1 2.89803 26.2689 4.56208 
82 1 2.84929 26.7701 0.99699 
83 1 2.87878 23.1692 2.50088 
182 1 27.8092 24.1795 6.31015 
185 1 5.31919 22.7541 5.19324 
86 1 8.38267 25.6728 0.577286 
87 1 9.68082 23.4445 2.18007 
88 1 6.28971 25.7056 3.14288 
90 1 12.3333 25.9326 0.675911 
92 1 11.8115 26.1849 3.97884 
96 1 15.9723 26.6497 2.22363 
113 1 14.3847 28.0553 4.89889 
15 1 19.24 28.1992 1.77278 
94 1 18.7823 24.3379 0.130528 
117 1 21.9321 28.1127 5.08773 
194 1 18.3091 25.9582 4.34373 
84 1 28.2912 25.2871 2.95506 
99 1 24.8137 23.1843 1.87193 
100 1 22.1304 25.6726 2.19256 
101 1 28.4677 0.211618 6.95171 
197 1 22.3098 22.7032 4.79025 
104 1 0.799056 2.94837 9.22627 
105 1 6.37152 0.104219 8.0724 
123 1 4.73378 4.16767 8.33319 
106 1 7.37947 2.44704 5.92515 
108 1 6.86606 2.47767 10.7091 