

63 atoms
1 atom types
0.0 10.8599998 xlo xhi
0.0 10.8599998 ylo yhi
0.0 10.8599998 zlo zhi

Atoms

1 1 0.0 0.0 0.0
2 1 0.0 2.7149999 2.7149999
3 1 2.7149999 0.0 2.7149999
4 1 2.7149999 2.7149999 0.0
5 1 1.3575 1.3575 1.3575
6 1 1.3575 4.0725002 4.0725002
7 1 4.0725002 1.3575 4.0725002
8 1 4.0725002 4.0725002 1.3575
9 1 5.4299999 0.0 0.0
10 1 5.4299999 2.7149999 2.7149999
11 1 8.1450005 0.0 2.7149999
12 1 8.1450005 2.7149999 0.0
13 1 6.7874999 1.3575 1.3575
14 1 6.7874999 4.0725002 4.0725002
15 1 9.5024996 1.3575 4.0725002
16 1 9.5024996 4.0725002 1.3575
17 1 0.0 5.4299999 0.0
18 1 0.0 8.1450005 2.7149999
19 1 2.7149999 5.4299999 2.7149999
20 1 2.7149999 8.1450005 0.0
21 1 1.3575 6.7874999 1.3575
22 1 1.3575 9.5024996 4.0725002
23 1 4.0725002 6.7874999 4.0725002
24 1 4.0725002 9.5024996 1.3575
25 1 5.4299999 5.4299999 0.0
26 1 5.4299999 8.1450005 2.7149999
27 1 8.1450005 5.4299999 2.7149999
28 1 8.1450005 8.1450005 0.0
29 1 6.7874999 6.7874999 1.3575
30 1 6.7874999 9.5024996 4.0725002
31 1 9.5024996 6.7874999 4.0725002
32 1 9.5024996 9.5024996 1.3575
33 1 0.0 0.0 5.4299999
34 1 0.0 2.7149999 8.1450005
35 1 2.7149999 0.0 8.1450005
36 1 2.7149999 2.7149999 5.4299999
37 1 1.3575 1.3575 6.7874999
38 1 1.3575 4.0725002 9.5024996
39 1 4.0725002 1.3575 9.5024996
40 1 4.0725002 4.0725002 6.7874999
41 1 5.4299999 0.0 5.4299999
42 1 5.4299999 2.7149999 8.1450005
43 1 8.1450005 0.0 8.1450005
44 1 8.1450005 2.7149999 5.4299999
45 1 6.7874999 1.3575 6.7874999
46 1 6.7874999 4.0725002 9.5024996
47 1 9.5024996 1.3575 9.5024996
48 1 9.5024996 4.0725002 6.7874999
49 1 0.0 5.4299999 5.4299999
50 1 0.0 8.1450005 8.1450005
51 1 2.7149999 5.4299999 8.1450005
52 1 2.7149999 8.1450005 5.4299999
53 1 1.3575 6.7874999 6.7874999
54 1 1.3575 9.5024996 9.5024996
55 1 4.0725002 6.7874999 9.5024996
56 1 4.0725002 9.5024996 6.7874999
57 1 5.4299999 5.4299999 5.4299999
58 1 5.4299999 8.1450005 8.1450005
59 1 8.1450005 5.4299999 8.1450005
60 1 8.1450005 8.1450005 5.4299999
61 1 6.7874999 6.7874999 6.7874999
62 1 6.7874999 9.5024996 9.5024996
63 1 9.5024996 6.7874999 9.5024996
