

511 atoms
1 atom types
0.0 21.7199993 xlo xhi
0.0 21.7199993 ylo yhi
0.0 21.7199993 zlo zhi

Atoms

1 1 0.0 0.0 0.0
2 1 0.0 2.7149999 2.7149999
3 1 2.7149999 0.0 2.7149999
4 1 2.7149999 2.7149999 0.0
5 1 1.3575 1.3575 1.3575
6 1 1.3575 4.0725002 4.0725002
7 1 4.0725002 1.3575 4.0725002
8 1 4.0725002 4.0725002 1.3575
9 1 5.4299999 0.0 0.0
10 1 5.4299999 2.7149999 2.7149999
11 1 8.1450005 0.0 2.7149999
12 1 8.1450005 2.7149999 0.0
13 1 6.7874999 1.3575 1.3575
14 1 6.7874999 4.0725002 4.0725002
15 1 9.5024996 1.3575 4.0725002
16 1 9.5024996 4.0725002 1.3575
17 1 10.8599998 0.0 0.0
18 1 10.8599998 2.7149999 2.7149999
19 1 13.5749998 0.0 2.7149999
20 1 13.5749998 2.7149999 0.0
21 1 12.2174997 1.3575 1.3575
22 1 12.2174997 4.0725002 4.0725002
23 1 14.9325 1.3575 4.0725002
24 1 14.9325 4.0725002 1.3575
25 1 16.2900009 0.0 0.0
26 1 16.2900009 2.7149999 2.7149999
27 1 19.0049992 0.0 2.7149999
28 1 19.0049992 2.7149999 0.0
29 1 17.6474991 1.3575 1.3575
30 1 17.6474991 4.0725002 4.0725002
31 1 20.3624992 1.3575 4.0725002
32 1 20.3624992 4.0725002 1.3575
33 1 0.0 5.4299999 0.0
34 1 0.0 8.1450005 2.7149999
35 1 2.7149999 5.4299999 2.7149999
36 1 2.7149999 8.1450005 0.0
37 1 1.3575 6.7874999 1.3575
38 1 1.3575 9.5024996 4.0725002
39 1 4.0725002 6.7874999 4.0725002
40 1 4.0725002 9.5024996 1.3575
41 1 5.4299999 5.4299999 0.0
42 1 5.4299999 8.1450005 2.7149999
43 1 8.1450005 5.4299999 2.7149999
44 1 8.1450005 8.1450005 0.0
45 1 6.7874999 6.7874999 1.3575
46 1 6.7874999 9.5024996 4.0725002
47 1 9.5024996 6.7874999 4.0725002
48 1 9.5024996 9.5024996 1.3575
49 1 10.8599998 5.4299999 0.0
50 1 10.8599998 8.1450005 2.7149999
51 1 13.5749998 5.4299999 2.7149999
52 1 13.5749998 8.1450005 0.0
53 1 12.2174997 6.7874999 1.3575
54 1 12.2174997 9.5024996 4.0725002
55 1 14.9325 6.7874999 4.0725002
56 1 14.9325 9.5024996 1.3575
57 1 16.2900009 5.4299999 0.0
58 1 16.2900009 8.1450005 2.7149999
59 1 19.0049992 5.4299999 2.7149999
60 1 19.0049992 8.1450005 0.0
61 1 17.6474991 6.7874999 1.3575
62 1 17.6474991 9.5024996 4.0725002
63 1 20.3624992 6.7874999 4.0725002
64 1 20.3624992 9.5024996 1.3575
65 1 0.0 10.8599998 0.0
66 1 0.0 13.5749998 2.7149999
67 1 2.7149999 10.8599998 2.7149999
68 1 2.7149999 13.5749998 0.0
69 1 1.3575 12.2174997 1.3575
70 1 1.3575 14.9325 4.0725002
71 1 4.0725002 12.2174997 4.0725002
72 1 4.0725002 14.9325 1.3575
73 1 5.4299999 10.8599998 0.0
74 1 5.4299999 13.5749998 2.7149999
75 1 8.1450005 10.8599998 2.7149999
76 1 8.1450005 13.5749998 0.0
77 1 6.7874999 12.2174997 1.3575
78 1 6.7874999 14.9325 4.0725002
79 1 9.5024996 12.2174997 4.0725002
80 1 9.5024996 14.9325 1.3575
81 1 10.8599998 10.8599998 0.0
82 1 10.8599998 13.5749998 2.7149999
83 1 13.5749998 10.8599998 2.7149999
84 1 13.5749998 13.5749998 0.0
85 1 12.2174997 12.2174997 1.3575
86 1 12.2174997 14.9325 4.0725002
87 1 14.9325 12.2174997 4.0725002
88 1 14.9325 14.9325 1.3575
89 1 16.2900009 10.8599998 0.0
90 1 16.2900009 13.5749998 2.7149999
91 1 19.0049992 10.8599998 2.7149999
92 1 19.0049992 13.5749998 0.0
93 1 17.6474991 12.2174997 1.3575
94 1 17.6474991 14.9325 4.0725002
95 1 20.3624992 12.2174997 4.0725002
96 1 20.3624992 14.9325 1.3575
97 1 0.0 16.2900009 0.0
98 1 0.0 19.0049992 2.7149999
99 1 2.7149999 16.2900009 2.7149999
100 1 2.7149999 19.0049992 0.0
101 1 1.3575 17.6474991 1.3575
102 1 1.3575 20.3624992 4.0725002
103 1 4.0725002 17.6474991 4.0725002
104 1 4.0725002 20.3624992 1.3575
105 1 5.4299999 16.2900009 0.0
106 1 5.4299999 19.0049992 2.7149999
107 1 8.1450005 16.2900009 2.7149999
108 1 8.1450005 19.0049992 0.0
109 1 6.7874999 17.6474991 1.3575
110 1 6.7874999 20.3624992 4.0725002
111 1 9.5024996 17.6474991 4.0725002
112 1 9.5024996 20.3624992 1.3575
113 1 10.8599998 16.2900009 0.0
114 1 10.8599998 19.0049992 2.7149999
115 1 13.5749998 16.2900009 2.7149999
116 1 13.5749998 19.0049992 0.0
117 1 12.2174997 17.6474991 1.3575
118 1 12.2174997 20.3624992 4.0725002
119 1 14.9325 17.6474991 4.0725002
120 1 14.9325 20.3624992 1.3575
121 1 16.2900009 16.2900009 0.0
122 1 16.2900009 19.0049992 2.7149999
123 1 19.0049992 16.2900009 2.7149999
124 1 19.0049992 19.0049992 0.0
125 1 17.6474991 17.6474991 1.3575
126 1 17.6474991 20.3624992 4.0725002
127 1 20.3624992 17.6474991 4.0725002
128 1 20.3624992 20.3624992 1.3575
129 1 0.0 0.0 5.4299999
130 1 0.0 2.7149999 8.1450005
131 1 2.7149999 0.0 8.1450005
132 1 2.7149999 2.7149999 5.4299999
133 1 1.3575 1.3575 6.7874999
134 1 1.3575 4.0725002 9.5024996
135 1 4.0725002 1.3575 9.5024996
136 1 4.0725002 4.0725002 6.7874999
137 1 5.4299999 0.0 5.4299999
138 1 5.4299999 2.7149999 8.1450005
139 1 8.1450005 0.0 8.1450005
140 1 8.1450005 2.7149999 5.4299999
141 1 6.7874999 1.3575 6.7874999
142 1 6.7874999 4.0725002 9.5024996
143 1 9.5024996 1.3575 9.5024996
144 1 9.5024996 4.0725002 6.7874999
145 1 10.8599998 0.0 5.4299999
146 1 10.8599998 2.7149999 8.1450005
147 1 13.5749998 0.0 8.1450005
148 1 13.5749998 2.7149999 5.4299999
149 1 12.2174997 1.3575 6.7874999
150 1 12.2174997 4.0725002 9.5024996
151 1 14.9325 1.3575 9.5024996
152 1 14.9325 4.0725002 6.7874999
153 1 16.2900009 0.0 5.4299999
154 1 16.2900009 2.7149999 8.1450005
155 1 19.0049992 0.0 8.1450005
156 1 19.0049992 2.7149999 5.4299999
157 1 17.6474991 1.3575 6.7874999
158 1 17.6474991 4.0725002 9.5024996
159 1 20.3624992 1.3575 9.5024996
160 1 20.3624992 4.0725002 6.7874999
161 1 0.0 5.4299999 5.4299999
162 1 0.0 8.1450005 8.1450005
163 1 2.7149999 5.4299999 8.1450005
164 1 2.7149999 8.1450005 5.4299999
165 1 1.3575 6.7874999 6.7874999
166 1 1.3575 9.5024996 9.5024996
167 1 4.0725002 6.7874999 9.5024996
168 1 4.0725002 9.5024996 6.7874999
169 1 5.4299999 5.4299999 5.4299999
170 1 5.4299999 8.1450005 8.1450005
171 1 8.1450005 5.4299999 8.1450005
172 1 8.1450005 8.1450005 5.4299999
173 1 6.7874999 6.7874999 6.7874999
174 1 6.7874999 9.5024996 9.5024996
175 1 9.5024996 6.7874999 9.5024996
176 1 9.5024996 9.5024996 6.7874999
177 1 10.8599998 5.4299999 5.4299999
178 1 10.8599998 8.1450005 8.1450005
179 1 13.5749998 5.4299999 8.1450005
180 1 13.5749998 8.1450005 5.4299999
181 1 12.2174997 6.7874999 6.7874999
182 1 12.2174997 9.5024996 9.5024996
183 1 14.9325 6.7874999 9.5024996
184 1 14.9325 9.5024996 6.7874999
185 1 16.2900009 5.4299999 5.4299999
186 1 16.2900009 8.1450005 8.1450005
187 1 19.0049992 5.4299999 8.1450005
188 1 19.0049992 8.1450005 5.4299999
189 1 17.6474991 6.7874999 6.7874999
190 1 17.6474991 9.5024996 9.5024996
191 1 20.3624992 6.7874999 9.5024996
192 1 20.3624992 9.5024996 6.7874999
193 1 0.0 10.8599998 5.4299999
194 1 0.0 13.5749998 8.1450005
195 1 2.7149999 10.8599998 8.1450005
196 1 2.7149999 13.5749998 5.4299999
197 1 1.3575 12.2174997 6.7874999
198 1 1.3575 14.9325 9.5024996
199 1 4.0725002 12.2174997 9.5024996
200 1 4.0725002 14.9325 6.7874999
201 1 5.4299999 10.8599998 5.4299999
202 1 5.4299999 13.5749998 8.1450005
203 1 8.1450005 10.8599998 8.1450005
204 1 8.1450005 13.5749998 5.4299999
205 1 6.7874999 12.2174997 6.7874999
206 1 6.7874999 14.9325 9.5024996
207 1 9.5024996 12.2174997 9.5024996
208 1 9.5024996 14.9325 6.7874999
209 1 10.8599998 10.8599998 5.4299999
210 1 10.8599998 13.5749998 8.1450005
211 1 13.5749998 10.8599998 8.1450005
212 1 13.5749998 13.5749998 5.4299999
213 1 12.2174997 12.2174997 6.7874999
214 1 12.2174997 14.9325 9.5024996
215 1 14.9325 12.2174997 9.5024996
216 1 14.9325 14.9325 6.7874999
217 1 16.2900009 10.8599998 5.4299999
218 1 16.2900009 13.5749998 8.1450005
219 1 19.0049992 10.8599998 8.1450005
220 1 19.0049992 13.5749998 5.4299999
221 1 17.6474991 12.2174997 6.7874999
222 1 17.6474991 14.9325 9.5024996
223 1 20.3624992 12.2174997 9.5024996
224 1 20.3624992 14.9325 6.7874999
225 1 0.0 16.2900009 5.4299999
226 1 0.0 19.0049992 8.1450005
227 1 2.7149999 16.2900009 8.1450005
228 1 2.7149999 19.0049992 5.4299999
229 1 1.3575 17.6474991 6.7874999
230 1 1.3575 20.3624992 9.5024996
231 1 4.0725002 17.6474991 9.5024996
232 1 4.0725002 20.3624992 6.7874999
233 1 5.4299999 16.2900009 5.4299999
234 1 5.4299999 19.0049992 8.1450005
235 1 8.1450005 16.2900009 8.1450005
236 1 8.1450005 19.0049992 5.4299999
237 1 6.7874999 17.6474991 6.7874999
238 1 6.7874999 20.3624992 9.5024996
239 1 9.5024996 17.6474991 9.5024996
240 1 9.5024996 20.3624992 6.7874999
241 1 10.8599998 16.2900009 5.4299999
242 1 10.8599998 19.0049992 8.1450005
243 1 13.5749998 16.2900009 8.1450005
244 1 13.5749998 19.0049992 5.4299999
245 1 12.2174997 17.6474991 6.7874999
246 1 12.2174997 20.3624992 9.5024996
247 1 14.9325 17.6474991 9.5024996
248 1 14.9325 20.3624992 6.7874999
249 1 16.2900009 16.2900009 5.4299999
250 1 16.2900009 19.0049992 8.1450005
251 1 19.0049992 16.2900009 8.1450005
252 1 19.0049992 19.0049992 5.4299999
253 1 17.6474991 17.6474991 6.7874999
254 1 17.6474991 20.3624992 9.5024996
255 1 20.3624992 17.6474991 9.5024996
256 1 20.3624992 20.3624992 6.7874999
257 1 0.0 0.0 10.8599998
258 1 0.0 2.7149999 13.5749998
259 1 2.7149999 0.0 13.5749998
260 1 2.7149999 2.7149999 10.8599998
261 1 1.3575 1.3575 12.2174997
262 1 1.3575 4.0725002 14.9325
263 1 4.0725002 1.3575 14.9325
264 1 4.0725002 4.0725002 12.2174997
265 1 5.4299999 0.0 10.8599998
266 1 5.4299999 2.7149999 13.5749998
267 1 8.1450005 0.0 13.5749998
268 1 8.1450005 2.7149999 10.8599998
269 1 6.7874999 1.3575 12.2174997
270 1 6.7874999 4.0725002 14.9325
271 1 9.5024996 1.3575 14.9325
272 1 9.5024996 4.0725002 12.2174997
273 1 10.8599998 0.0 10.8599998
274 1 10.8599998 2.7149999 13.5749998
275 1 13.5749998 0.0 13.5749998
276 1 13.5749998 2.7149999 10.8599998
277 1 12.2174997 1.3575 12.2174997
278 1 12.2174997 4.0725002 14.9325
279 1 14.9325 1.3575 14.9325
280 1 14.9325 4.0725002 12.2174997
281 1 16.2900009 0.0 10.8599998
282 1 16.2900009 2.7149999 13.5749998
283 1 19.0049992 0.0 13.5749998
284 1 19.0049992 2.7149999 10.8599998
285 1 17.6474991 1.3575 12.2174997
286 1 17.6474991 4.0725002 14.9325
287 1 20.3624992 1.3575 14.9325
288 1 20.3624992 4.0725002 12.2174997
289 1 0.0 5.4299999 10.8599998
290 1 0.0 8.1450005 13.5749998
291 1 2.7149999 5.4299999 13.5749998
292 1 2.7149999 8.1450005 10.8599998
293 1 1.3575 6.7874999 12.2174997
294 1 1.3575 9.5024996 14.9325
295 1 4.0725002 6.7874999 14.9325
296 1 4.0725002 9.5024996 12.2174997
297 1 5.4299999 5.4299999 10.8599998
298 1 5.4299999 8.1450005 13.5749998
299 1 8.1450005 5.4299999 13.5749998
300 1 8.1450005 8.1450005 10.8599998
301 1 6.7874999 6.7874999 12.2174997
302 1 6.7874999 9.5024996 14.9325
303 1 9.5024996 6.7874999 14.9325
304 1 9.5024996 9.5024996 12.2174997
305 1 10.8599998 5.4299999 10.8599998
306 1 10.8599998 8.1450005 13.5749998
307 1 13.5749998 5.4299999 13.5749998
308 1 13.5749998 8.1450005 10.8599998
309 1 12.2174997 6.7874999 12.2174997
310 1 12.2174997 9.5024996 14.9325
311 1 14.9325 6.7874999 14.9325
312 1 14.9325 9.5024996 12.2174997
313 1 16.2900009 5.4299999 10.8599998
314 1 16.2900009 8.1450005 13.5749998
315 1 19.0049992 5.4299999 13.5749998
316 1 19.0049992 8.1450005 10.8599998
317 1 17.6474991 6.7874999 12.2174997
318 1 17.6474991 9.5024996 14.9325
319 1 20.3624992 6.7874999 14.9325
320 1 20.3624992 9.5024996 12.2174997
321 1 0.0 10.8599998 10.8599998
322 1 0.0 13.5749998 13.5749998
323 1 2.7149999 10.8599998 13.5749998
324 1 2.7149999 13.5749998 10.8599998
325 1 1.3575 12.2174997 12.2174997
326 1 1.3575 14.9325 14.9325
327 1 4.0725002 12.2174997 14.9325
328 1 4.0725002 14.9325 12.2174997
329 1 5.4299999 10.8599998 10.8599998
330 1 5.4299999 13.5749998 13.5749998
331 1 8.1450005 10.8599998 13.5749998
332 1 8.1450005 13.5749998 10.8599998
333 1 6.7874999 12.2174997 12.2174997
334 1 6.7874999 14.9325 14.9325
335 1 9.5024996 12.2174997 14.9325
336 1 9.5024996 14.9325 12.2174997
337 1 10.8599998 10.8599998 10.8599998
338 1 10.8599998 13.5749998 13.5749998
339 1 13.5749998 10.8599998 13.5749998
340 1 13.5749998 13.5749998 10.8599998
341 1 12.2174997 12.2174997 12.2174997
342 1 12.2174997 14.9325 14.9325
343 1 14.9325 12.2174997 14.9325
344 1 14.9325 14.9325 12.2174997
345 1 16.2900009 10.8599998 10.8599998
346 1 16.2900009 13.5749998 13.5749998
347 1 19.0049992 10.8599998 13.5749998
348 1 19.0049992 13.5749998 10.8599998
349 1 17.6474991 12.2174997 12.2174997
350 1 17.6474991 14.9325 14.9325
351 1 20.3624992 12.2174997 14.9325
352 1 20.3624992 14.9325 12.2174997
353 1 0.0 16.2900009 10.8599998
354 1 0.0 19.0049992 13.5749998
355 1 2.7149999 16.2900009 13.5749998
356 1 2.7149999 19.0049992 10.8599998
357 1 1.3575 17.6474991 12.2174997
358 1 1.3575 20.3624992 14.9325
359 1 4.0725002 17.6474991 14.9325
360 1 4.0725002 20.3624992 12.2174997
361 1 5.4299999 16.2900009 10.8599998
362 1 5.4299999 19.0049992 13.5749998
363 1 8.1450005 16.2900009 13.5749998
364 1 8.1450005 19.0049992 10.8599998
365 1 6.7874999 17.6474991 12.2174997
366 1 6.7874999 20.3624992 14.9325
367 1 9.5024996 17.6474991 14.9325
368 1 9.5024996 20.3624992 12.2174997
369 1 10.8599998 16.2900009 10.8599998
370 1 10.8599998 19.0049992 13.5749998
371 1 13.5749998 16.2900009 13.5749998
372 1 13.5749998 19.0049992 10.8599998
373 1 12.2174997 17.6474991 12.2174997
374 1 12.2174997 20.3624992 14.9325
375 1 14.9325 17.6474991 14.9325
376 1 14.9325 20.3624992 12.2174997
377 1 16.2900009 16.2900009 10.8599998
378 1 16.2900009 19.0049992 13.5749998
379 1 19.0049992 16.2900009 13.5749998
380 1 19.0049992 19.0049992 10.8599998
381 1 17.6474991 17.6474991 12.2174997
382 1 17.6474991 20.3624992 14.9325
383 1 20.3624992 17.6474991 14.9325
384 1 20.3624992 20.3624992 12.2174997
385 1 0.0 0.0 16.2900009
386 1 0.0 2.7149999 19.0049992
387 1 2.7149999 0.0 19.0049992
388 1 2.7149999 2.7149999 16.2900009
389 1 1.3575 1.3575 17.6474991
390 1 1.3575 4.0725002 20.3624992
391 1 4.0725002 1.3575 20.3624992
392 1 4.0725002 4.0725002 17.6474991
393 1 5.4299999 0.0 16.2900009
394 1 5.4299999 2.7149999 19.0049992
395 1 8.1450005 0.0 19.0049992
396 1 8.1450005 2.7149999 16.2900009
397 1 6.7874999 1.3575 17.6474991
398 1 6.7874999 4.0725002 20.3624992
399 1 9.5024996 1.3575 20.3624992
400 1 9.5024996 4.0725002 17.6474991
401 1 10.8599998 0.0 16.2900009
402 1 10.8599998 2.7149999 19.0049992
403 1 13.5749998 0.0 19.0049992
404 1 13.5749998 2.7149999 16.2900009
405 1 12.2174997 1.3575 17.6474991
406 1 12.2174997 4.0725002 20.3624992
407 1 14.9325 1.3575 20.3624992
408 1 14.9325 4.0725002 17.6474991
409 1 16.2900009 0.0 16.2900009
410 1 16.2900009 2.7149999 19.0049992
411 1 19.0049992 0.0 19.0049992
412 1 19.0049992 2.7149999 16.2900009
413 1 17.6474991 1.3575 17.6474991
414 1 17.6474991 4.0725002 20.3624992
415 1 20.3624992 1.3575 20.3624992
416 1 20.3624992 4.0725002 17.6474991
417 1 0.0 5.4299999 16.2900009
418 1 0.0 8.1450005 19.0049992
419 1 2.7149999 5.4299999 19.0049992
420 1 2.7149999 8.1450005 16.2900009
421 1 1.3575 6.7874999 17.6474991
422 1 1.3575 9.5024996 20.3624992
423 1 4.0725002 6.7874999 20.3624992
424 1 4.0725002 9.5024996 17.6474991
425 1 5.4299999 5.4299999 16.2900009
426 1 5.4299999 8.1450005 19.0049992
427 1 8.1450005 5.4299999 19.0049992
428 1 8.1450005 8.1450005 16.2900009
429 1 6.7874999 6.7874999 17.6474991
430 1 6.7874999 9.5024996 20.3624992
431 1 9.5024996 6.7874999 20.3624992
432 1 9.5024996 9.5024996 17.6474991
433 1 10.8599998 5.4299999 16.2900009
434 1 10.8599998 8.1450005 19.0049992
435 1 13.5749998 5.4299999 19.0049992
436 1 13.5749998 8.1450005 16.2900009
437 1 12.2174997 6.7874999 17.6474991
438 1 12.2174997 9.5024996 20.3624992
439 1 14.9325 6.7874999 20.3624992
440 1 14.9325 9.5024996 17.6474991
441 1 16.2900009 5.4299999 16.2900009
442 1 16.2900009 8.1450005 19.0049992
443 1 19.0049992 5.4299999 19.0049992
444 1 19.0049992 8.1450005 16.2900009
445 1 17.6474991 6.7874999 17.6474991
446 1 17.6474991 9.5024996 20.3624992
447 1 20.3624992 6.7874999 20.3624992
448 1 20.3624992 9.5024996 17.6474991
449 1 0.0 10.8599998 16.2900009
450 1 0.0 13.5749998 19.0049992
451 1 2.7149999 10.8599998 19.0049992
452 1 2.7149999 13.5749998 16.2900009
453 1 1.3575 12.2174997 17.6474991
454 1 1.3575 14.9325 20.3624992
455 1 4.0725002 12.2174997 20.3624992
456 1 4.0725002 14.9325 17.6474991
457 1 5.4299999 10.8599998 16.2900009
458 1 5.4299999 13.5749998 19.0049992
459 1 8.1450005 10.8599998 19.0049992
460 1 8.1450005 13.5749998 16.2900009
461 1 6.7874999 12.2174997 17.6474991
462 1 6.7874999 14.9325 20.3624992
463 1 9.5024996 12.2174997 20.3624992
464 1 9.5024996 14.9325 17.6474991
465 1 10.8599998 10.8599998 16.2900009
466 1 10.8599998 13.5749998 19.0049992
467 1 13.5749998 10.8599998 19.0049992
468 1 13.5749998 13.5749998 16.2900009
469 1 12.2174997 12.2174997 17.6474991
470 1 12.2174997 14.9325 20.3624992
471 1 14.9325 12.2174997 20.3624992
472 1 14.9325 14.9325 17.6474991
473 1 16.2900009 10.8599998 16.2900009
474 1 16.2900009 13.5749998 19.0049992
475 1 19.0049992 10.8599998 19.0049992
476 1 19.0049992 13.5749998 16.2900009
477 1 17.6474991 12.2174997 17.6474991
478 1 17.6474991 14.9325 20.3624992
479 1 20.3624992 12.2174997 20.3624992
480 1 20.3624992 14.9325 17.6474991
481 1 0.0 16.2900009 16.2900009
482 1 0.0 19.0049992 19.0049992
483 1 2.7149999 16.2900009 19.0049992
484 1 2.7149999 19.0049992 16.2900009
485 1 1.3575 17.6474991 17.6474991
486 1 1.3575 20.3624992 20.3624992
487 1 4.0725002 17.6474991 20.3624992
488 1 4.0725002 20.3624992 17.6474991
489 1 5.4299999 16.2900009 16.2900009
490 1 5.4299999 19.0049992 19.0049992
491 1 8.1450005 16.2900009 19.0049992
492 1 8.1450005 19.0049992 16.2900009
493 1 6.7874999 17.6474991 17.6474991
494 1 6.7874999 20.3624992 20.3624992
495 1 9.5024996 17.6474991 20.3624992
496 1 9.5024996 20.3624992 17.6474991
497 1 10.8599998 16.2900009 16.2900009
498 1 10.8599998 19.0049992 19.0049992
499 1 13.5749998 16.2900009 19.0049992
500 1 13.5749998 19.0049992 16.2900009
501 1 12.2174997 17.6474991 17.6474991
502 1 12.2174997 20.3624992 20.3624992
503 1 14.9325 17.6474991 20.3624992
504 1 14.9325 20.3624992 17.6474991
505 1 16.2900009 16.2900009 16.2900009
506 1 16.2900009 19.0049992 19.0049992
507 1 19.0049992 16.2900009 19.0049992
508 1 19.0049992 19.0049992 16.2900009
509 1 17.6474991 17.6474991 17.6474991
510 1 17.6474991 20.3624992 20.3624992
511 1 20.3624992 17.6474991 20.3624992
