ITEM: TIMESTEP
0
ITEM: NUMBER OF ATOMS
63
ITEM: BOX BOUNDS pp pp pp
0.0000000000000000e+00 1.0859999800000001e+01
0.0000000000000000e+00 1.0859999800000001e+01
0.0000000000000000e+00 1.0859999800000001e+01
ITEM: ATOMS id type x y z 
1 1 0 0 0 
2 1 0 2.715 2.715 
3 1 2.715 0 2.715 
4 1 2.715 2.715 0 
5 1 1.3575 1.3575 1.3575 
6 1 1.3575 4.0725 4.0725 
7 1 4.0725 1.3575 4.0725 
8 1 4.0725 4.0725 1.3575 
9 1 5.43 0 0 
10 1 5.43 2.715 2.715 
11 1 8.145 0 2.715 
12 1 8.145 2.715 0 
13 1 6.7875 1.3575 1.3575 
14 1 6.7875 4.0725 4.0725 
15 1 9.5025 1.3575 4.0725 
16 1 9.5025 4.0725 1.3575 
17 1 0 5.43 0 
18 1 0 8.145 2.715 
19 1 2.715 5.43 2.715 
20 1 2.715 8.145 0 
21 1 1.3575 6.7875 1.3575 
22 1 1.3575 9.5025 4.0725 
23 1 4.0725 6.7875 4.0725 
24 1 4.0725 9.5025 1.3575 
25 1 5.43 5.43 0 
26 1 5.43 8.145 2.715 
27 1 8.145 5.43 2.715 
28 1 8.145 8.145 0 
29 1 6.7875 6.7875 1.3575 
30 1 6.7875 9.5025 4.0725 
31 1 9.5025 6.7875 4.0725 
32 1 9.5025 9.5025 1.3575 
33 1 0 0 5.43 
34 1 0 2.715 8.145 
35 1 2.715 0 8.145 
36 1 2.715 2.715 5.43 
37 1 1.3575 1.3575 6.7875 
38 1 1.3575 4.0725 9.5025 
39 1 4.0725 1.3575 9.5025 
40 1 4.0725 4.0725 6.7875 
41 1 5.43 0 5.43 
42 1 5.43 2.715 8.145 
43 1 8.145 0 8.145 
44 1 8.145 2.715 5.43 
45 1 6.7875 1.3575 6.7875 
46 1 6.7875 4.0725 9.5025 
47 1 9.5025 1.3575 9.5025 
48 1 9.5025 4.0725 6.7875 
49 1 0 5.43 5.43 
50 1 0 8.145 8.145 
51 1 2.715 5.43 8.145 
52 1 2.715 8.145 5.43 
53 1 1.3575 6.7875 6.7875 
54 1 1.3575 9.5025 9.5025 
55 1 4.0725 6.7875 9.5025 
56 1 4.0725 9.5025 6.7875 
57 1 5.43 5.43 5.43 
58 1 5.43 8.145 8.145 
59 1 8.145 5.43 8.145 
60 1 8.145 8.145 5.43 
61 1 6.7875 6.7875 6.7875 
62 1 6.7875 9.5025 9.5025 
63 1 9.5025 6.7875 9.5025 
ITEM: TIMESTEP
100
ITEM: NUMBER OF ATOMS
63
ITEM: BOX BOUNDS pp pp pp
1.6135664785370629e-03 1.0858386233521459e+01
1.6135664785370629e-03 1.0858386233521459e+01
1.6135664785370629e-03 1.0858386233521459e+01
ITEM: ATOMS id type x y z 
1 1 -0.000616552 -0.000616552 -0.00330653 
2 1 0.00197565 2.7151 2.71651 
3 1 2.7151 0.00197565 2.71651 
4 1 2.71526 2.71526 0.00106808 
5 1 1.35667 1.35667 1.35651 
6 1 1.35667 4.0751 4.07494 
7 1 4.0751 1.35667 4.07494 
8 1 4.0729 4.0729 1.35871 
9 1 5.4307 0.00197565 0.000910827 
10 1 5.43055 2.71526 2.71635 
11 1 8.14642 -0.000616554 2.72073 
12 1 8.14383 2.7151 0.000910829 
13 1 6.78914 1.35667 1.36091 
14 1 6.78914 4.07071 4.07494 
15 1 9.50863 1.35377 4.07785 
16 1 9.50129 4.0729 1.35871 
17 1 0.00197565 5.4307 0.000910827 
18 1 -0.000616554 8.14642 2.72073 
19 1 2.71526 5.43055 2.71635 
20 1 2.7151 8.14383 0.000910829 
21 1 1.35667 6.78914 1.36091 
22 1 1.35377 9.50863 4.07785 
23 1 4.07071 6.78914 4.07494 
24 1 4.0729 9.50129 1.35871 
25 1 5.43055 5.43055 0.00106808 
26 1 5.4307 8.14383 2.71651 
27 1 8.14383 5.4307 2.71651 
28 1 8.14642 8.14642 -0.00330653 
29 1 6.78914 6.78914 1.35651 
30 1 6.79204 9.49395 4.07785 
31 1 9.49395 6.79204 4.07785 
32 1 9.50129 9.50129 1.35871 
33 1 0.013895 0.013895 5.41772 
34 1 -0.000616552 2.71089 8.14196 
35 1 2.71089 -0.000616552 8.14196 
36 1 2.7151 2.7151 5.42964 
37 1 1.35377 1.35377 6.77975 
38 1 1.35667 4.07071 9.49925 
39 1 4.07071 1.35667 9.49925 
40 1 4.0729 4.0729 6.7871 
41 1 5.43492 -0.000616554 5.43223 
42 1 5.4307 2.7151 8.14456 
43 1 8.13191 0.013895 8.15647 
44 1 8.14642 2.71089 5.43223 
45 1 6.79204 1.35377 6.79444 
46 1 6.78914 4.0751 9.49925 
47 1 9.49395 1.35377 9.49635 
48 1 9.50129 4.0729 6.7871 
49 1 -0.000616554 5.43492 5.43223 
50 1 0.013895 8.13191 8.15647 
51 1 2.7151 5.4307 8.14456 
52 1 2.71089 8.14642 5.43223 
53 1 1.35377 6.79204 6.79444 
54 1 1.35377 9.49395 9.49635 
55 1 4.0751 6.78914 9.49925 
56 1 4.0729 9.50129 6.7871 
57 1 5.4307 5.4307 5.42964 
58 1 5.43492 8.14642 8.14196 
59 1 8.14642 5.43492 8.14196 
60 1 8.13191 8.13191 5.41772 
61 1 6.79204 6.79204 6.77975 
62 1 6.79204 9.50863 9.49635 
63 1 9.50863 6.79204 9.49635 
ITEM: TIMESTEP
200
ITEM: NUMBER OF ATOMS
63
ITEM: BOX BOUNDS pp pp pp
1.6111142911734181e-03 1.0858388685708816e+01
1.6111142911734181e-03 1.0858388685708816e+01
1.6111142911734181e-03 1.0858388685708816e+01
ITEM: ATOMS id type x y z 
1 1 -0.000602952 -0.000602952 -0.003275 
2 1 0.00195535 2.7151 2.71651 
3 1 2.7151 0.00195535 2.71651 
4 1 2.71526 2.71526 0.00106625 
5 1 1.35669 1.35669 1.35654 
6 1 1.35669 4.07507 4.07493 
7 1 4.07507 1.35669 4.07493 
8 1 4.0729 4.0729 1.35871 
9 1 5.43071 0.00195535 0.00090363 
10 1 5.43054 2.71526 2.71635 
11 1 8.14641 -0.000602954 2.72069 
12 1 8.14385 2.7151 0.00090363 
13 1 6.78912 1.35669 1.36087 
14 1 6.78912 4.07074 4.07493 
15 1 9.5086 1.35377 4.07784 
16 1 9.50129 4.0729 1.35871 
17 1 0.00195535 5.43071 0.00090363 
18 1 -0.000602954 8.14641 2.72069 
19 1 2.71526 5.43054 2.71635 
20 1 2.7151 8.14385 0.00090363 
21 1 1.35669 6.78912 1.36087 
22 1 1.35377 9.5086 4.07784 
23 1 4.07074 6.78912 4.07493 
24 1 4.0729 9.50129 1.35871 
25 1 5.43054 5.43054 0.00106626 
26 1 5.43071 8.14385 2.71651 
27 1 8.14385 5.43071 2.71651 
28 1 8.14641 8.14641 -0.003275 
29 1 6.78912 6.78912 1.35654 
30 1 6.79203 9.49398 4.07784 
31 1 9.49398 6.79203 4.07784 
32 1 9.50129 9.50129 1.35871 
33 1 0.0139214 0.0139214 5.41769 
34 1 -0.000602952 2.71092 8.14198 
35 1 2.71092 -0.000602952 8.14198 
36 1 2.7151 2.7151 5.42966 
37 1 1.35377 1.35377 6.77978 
38 1 1.35669 4.07074 9.49927 
39 1 4.07074 1.35669 9.49927 
40 1 4.0729 4.0729 6.7871 
41 1 5.43489 -0.000602953 5.43221 
42 1 5.43071 2.7151 8.14454 
43 1 8.13188 0.0139214 8.1565 
44 1 8.14641 2.71092 5.43221 
45 1 6.79203 1.35377 6.79441 
46 1 6.78912 4.07507 9.49927 
47 1 9.49398 1.35377 9.49635 
48 1 9.50129 4.0729 6.7871 
49 1 -0.000602953 5.43489 5.43221 
50 1 0.0139214 8.13188 8.1565 
51 1 2.7151 5.43071 8.14454 
52 1 2.71092 8.14641 5.43221 
53 1 1.35377 6.79203 6.79441 
54 1 1.35377 9.49398 9.49635 
55 1 4.07507 6.78912 9.49927 
56 1 4.0729 9.50129 6.7871 
57 1 5.43071 5.43071 5.42966 
58 1 5.43489 8.14641 8.14198 
59 1 8.14641 5.43489 8.14198 
60 1 8.13188 8.13188 5.41769 
61 1 6.79203 6.79203 6.77978 
62 1 6.79203 9.5086 9.49635 
63 1 9.5086 6.79203 9.49635 
ITEM: TIMESTEP
218
ITEM: NUMBER OF ATOMS
63
ITEM: BOX BOUNDS pp pp pp
1.6107745493683873e-03 1.0858389025450627e+01
1.6107745493683873e-03 1.0858389025450627e+01
1.6107745493683873e-03 1.0858389025450627e+01
ITEM: ATOMS id type x y z 
1 1 -0.000603582 -0.000603582 -0.00327561 
2 1 0.00195596 2.7151 2.71651 
3 1 2.7151 0.00195596 2.71651 
4 1 2.71526 2.71526 0.00106608 
5 1 1.35668 1.35668 1.35654 
6 1 1.35668 4.07507 4.07493 
7 1 4.07507 1.35668 4.07493 
8 1 4.0729 4.0729 1.35871 
9 1 5.43071 0.00195596 0.000903902 
10 1 5.43054 2.71526 2.71635 
11 1 8.14641 -0.000603582 2.72069 
12 1 8.14385 2.7151 0.000903902 
13 1 6.78912 1.35668 1.36088 
14 1 6.78912 4.07074 4.07493 
15 1 9.50861 1.35377 4.07784 
16 1 9.50129 4.0729 1.35871 
17 1 0.00195596 5.43071 0.000903902 
18 1 -0.000603582 8.14641 2.72069 
19 1 2.71526 5.43054 2.71635 
20 1 2.7151 8.14385 0.000903902 
21 1 1.35668 6.78912 1.36088 
22 1 1.35377 9.50861 4.07784 
23 1 4.07074 6.78912 4.07493 
24 1 4.0729 9.50129 1.35871 
25 1 5.43054 5.43054 0.00106608 
26 1 5.43071 8.14385 2.71651 
27 1 8.14385 5.43071 2.71651 
28 1 8.14641 8.14641 -0.00327561 
29 1 6.78912 6.78912 1.35654 
30 1 6.79203 9.49398 4.07784 
31 1 9.49398 6.79203 4.07784 
32 1 9.50129 9.50129 1.35871 
33 1 0.0139237 0.0139237 5.41769 
34 1 -0.000603582 2.71092 8.14198 
35 1 2.71092 -0.000603582 8.14198 
36 1 2.7151 2.7151 5.42965 
37 1 1.35377 1.35377 6.77978 
38 1 1.35668 4.07074 9.49927 
39 1 4.07074 1.35668 9.49927 
40 1 4.0729 4.0729 6.7871 
41 1 5.43489 -0.000603582 5.43221 
42 1 5.43071 2.7151 8.14454 
43 1 8.13188 0.0139237 8.15651 
44 1 8.14641 2.71092 5.43221 
45 1 6.79203 1.35377 6.79441 
46 1 6.78912 4.07507 9.49927 
47 1 9.49398 1.35377 9.49636 
48 1 9.50129 4.0729 6.7871 
49 1 -0.000603582 5.43489 5.43221 
50 1 0.0139237 8.13188 8.15651 
51 1 2.7151 5.43071 8.14454 
52 1 2.71092 8.14641 5.43221 
53 1 1.35377 6.79203 6.79441 
54 1 1.35377 9.49398 9.49636 
55 1 4.07507 6.78912 9.49927 
56 1 4.0729 9.50129 6.7871 
57 1 5.43071 5.43071 5.42965 
58 1 5.43489 8.14641 8.14198 
59 1 8.14641 5.43489 8.14198 
60 1 8.13188 8.13188 5.41769 
61 1 6.79203 6.79203 6.77978 
62 1 6.79203 9.50861 9.49636 
63 1 9.50861 6.79203 9.49636 
