ITEM: TIMESTEP
0
ITEM: NUMBER OF ATOMS
7
ITEM: BOX BOUNDS pp pp pp
0.0000000000000000e+00 5.4299999000000003e+00
0.0000000000000000e+00 5.4299999000000003e+00
0.0000000000000000e+00 5.4299999000000003e+00
ITEM: ATOMS id type x y z 
1 1 0 0 0 
2 1 0 2.715 2.715 
3 1 2.715 0 2.715 
4 1 2.715 2.715 0 
5 1 1.3575 1.3575 1.3575 
6 1 1.3575 4.0725 4.0725 
7 1 4.0725 1.3575 4.0725 
ITEM: TIMESTEP
22
ITEM: NUMBER OF ATOMS
7
ITEM: BOX BOUNDS pp pp pp
2.2611858629859163e-02 5.4073880413701385e+00
2.2611858629859163e-02 5.4073880413701385e+00
2.2611858629859163e-02 5.4073880413701385e+00
ITEM: ATOMS id type x y z 
1 1 0.0218022 0.0218022 0.0234216 
2 1 0.0218023 2.71581 2.71419 
3 1 2.71581 0.0218023 2.71419 
4 1 2.71581 2.71581 0.0234215 
5 1 1.36881 1.36881 1.36881 
6 1 1.36881 4.06119 4.06119 
7 1 4.06119 1.36881 4.06119 
