

7 atoms
1 atom types
0.0 5.4299999 xlo xhi
0.0 5.4299999 ylo yhi
0.0 5.4299999 zlo zhi

Atoms

1 1 0.0 0.0 0.0
2 1 0.0 2.7149999 2.7149999
3 1 2.7149999 0.0 2.7149999
4 1 2.7149999 2.7149999 0.0
5 1 1.3575 1.3575 1.3575
6 1 1.3575 4.0725002 4.0725002
7 1 4.0725002 1.3575 4.0725002
