LAMMPS Description

     1944  atoms
     1728  bonds
     2808  angles
     2592  dihedrals
     0  impropers

     5  atom types
     9  bond types
     22  angle types
     58  dihedral types

  0.0 27.0 xlo xhi
  0.0 27.0 ylo yhi
  0.0 27.0 zlo zhi

Masses

    1 12.011 #CT "Alkane CH3-" 6 partial charge=-0.18
    2 1.008 #HC "Alkane H-C" 1 partial charge=0.06
    3 15.999 #OH "Alcohol -OH" 8 partial charge=-0.683
    4 1.008 #HO "Alcohol -OH" 1 partial charge=0.418
    5 12.011 #CT "Alcohol CH3OH & RCH2OH" 6 partial charge=0.145

Atoms

1 1 1 0.0 0.995 0.329 0.0
2 1 5 0.0 -0.34 -0.404 0.0
3 1 3 0.0 -1.394 0.538 0.0
4 1 4 0.0 -2.235 0.073 0.0
5 1 2 0.0 1.844 -0.392 0.0
6 1 2 0.0 1.096 0.975 -0.902
7 1 2 0.0 1.096 0.976 0.901
8 1 2 0.0 -0.456 -1.038 0.907
9 1 2 0.0 -0.457 -1.039 -0.907
10 2 1 0.0 5.495 0.329 0.0
11 2 5 0.0 4.16 -0.404 0.0
12 2 3 0.0 3.106 0.538 0.0
13 2 4 0.0 2.265 0.073 0.0
14 2 2 0.0 6.344 -0.392 0.0
15 2 2 0.0 5.596 0.975 -0.902
16 2 2 0.0 5.596 0.976 0.901
17 2 2 0.0 4.044 -1.038 0.907
18 2 2 0.0 4.043 -1.039 -0.907
19 3 1 0.0 9.995 0.329 0.0
20 3 5 0.0 8.66 -0.404 0.0
21 3 3 0.0 7.606 0.538 0.0
22 3 4 0.0 6.765 0.073 0.0
23 3 2 0.0 10.844 -0.392 0.0
24 3 2 0.0 10.096 0.975 -0.902
25 3 2 0.0 10.096 0.976 0.901
26 3 2 0.0 8.544 -1.038 0.907
27 3 2 0.0 8.543 -1.039 -0.907
28 4 1 0.0 14.495 0.329 0.0
29 4 5 0.0 13.16 -0.404 0.0
30 4 3 0.0 12.106 0.538 0.0
31 4 4 0.0 11.265 0.073 0.0
32 4 2 0.0 15.344 -0.392 0.0
33 4 2 0.0 14.596 0.975 -0.902
34 4 2 0.0 14.596 0.976 0.901
35 4 2 0.0 13.044 -1.038 0.907
36 4 2 0.0 13.043 -1.039 -0.907
37 5 1 0.0 18.995 0.329 0.0
38 5 5 0.0 17.66 -0.404 0.0
39 5 3 0.0 16.606 0.538 0.0
40 5 4 0.0 15.765 0.073 0.0
41 5 2 0.0 19.844 -0.392 0.0
42 5 2 0.0 19.096 0.975 -0.902
43 5 2 0.0 19.096 0.976 0.901
44 5 2 0.0 17.544 -1.038 0.907
45 5 2 0.0 17.543 -1.039 -0.907
46 6 1 0.0 23.495 0.329 0.0
47 6 5 0.0 22.16 -0.404 0.0
48 6 3 0.0 21.106 0.538 0.0
49 6 4 0.0 20.265 0.073 0.0
50 6 2 0.0 24.344 -0.392 0.0
51 6 2 0.0 23.596 0.975 -0.902
52 6 2 0.0 23.596 0.976 0.901
53 6 2 0.0 22.044 -1.038 0.907
54 6 2 0.0 22.043 -1.039 -0.907
55 7 1 0.0 0.995 4.829 0.0
56 7 5 0.0 -0.34 4.096 0.0
57 7 3 0.0 -1.394 5.038 0.0
58 7 4 0.0 -2.235 4.573 0.0
59 7 2 0.0 1.844 4.108 0.0
60 7 2 0.0 1.096 5.475 -0.902
61 7 2 0.0 1.096 5.476 0.901
62 7 2 0.0 -0.456 3.462 0.907
63 7 2 0.0 -0.457 3.461 -0.907
64 8 1 0.0 5.495 4.829 0.0
65 8 5 0.0 4.16 4.096 0.0
66 8 3 0.0 3.106 5.038 0.0
67 8 4 0.0 2.265 4.573 0.0
68 8 2 0.0 6.344 4.108 0.0
69 8 2 0.0 5.596 5.475 -0.902
70 8 2 0.0 5.596 5.476 0.901
71 8 2 0.0 4.044 3.462 0.907
72 8 2 0.0 4.043 3.461 -0.907
73 9 1 0.0 9.995 4.829 0.0
74 9 5 0.0 8.66 4.096 0.0
75 9 3 0.0 7.606 5.038 0.0
76 9 4 0.0 6.765 4.573 0.0
77 9 2 0.0 10.844 4.108 0.0
78 9 2 0.0 10.096 5.475 -0.902
79 9 2 0.0 10.096 5.476 0.901
80 9 2 0.0 8.544 3.462 0.907
81 9 2 0.0 8.543 3.461 -0.907
82 10 1 0.0 14.495 4.829 0.0
83 10 5 0.0 13.16 4.096 0.0
84 10 3 0.0 12.106 5.038 0.0
85 10 4 0.0 11.265 4.573 0.0
86 10 2 0.0 15.344 4.108 0.0
87 10 2 0.0 14.596 5.475 -0.902
88 10 2 0.0 14.596 5.476 0.901
89 10 2 0.0 13.044 3.462 0.907
90 10 2 0.0 13.043 3.461 -0.907
91 11 1 0.0 18.995 4.829 0.0
92 11 5 0.0 17.66 4.096 0.0
93 11 3 0.0 16.606 5.038 0.0
94 11 4 0.0 15.765 4.573 0.0
95 11 2 0.0 19.844 4.108 0.0
96 11 2 0.0 19.096 5.475 -0.902
97 11 2 0.0 19.096 5.476 0.901
98 11 2 0.0 17.544 3.462 0.907
99 11 2 0.0 17.543 3.461 -0.907
100 12 1 0.0 23.495 4.829 0.0
101 12 5 0.0 22.16 4.096 0.0
102 12 3 0.0 21.106 5.038 0.0
103 12 4 0.0 20.265 4.573 0.0
104 12 2 0.0 24.344 4.108 0.0
105 12 2 0.0 23.596 5.475 -0.902
106 12 2 0.0 23.596 5.476 0.901
107 12 2 0.0 22.044 3.462 0.907
108 12 2 0.0 22.043 3.461 -0.907
109 13 1 0.0 0.995 9.329 0.0
110 13 5 0.0 -0.34 8.596 0.0
111 13 3 0.0 -1.394 9.538 0.0
112 13 4 0.0 -2.235 9.073 0.0
113 13 2 0.0 1.844 8.608 0.0
114 13 2 0.0 1.096 9.975 -0.902
115 13 2 0.0 1.096 9.976 0.901
116 13 2 0.0 -0.456 7.962 0.907
117 13 2 0.0 -0.457 7.961 -0.907
118 14 1 0.0 5.495 9.329 0.0
119 14 5 0.0 4.16 8.596 0.0
120 14 3 0.0 3.106 9.538 0.0
121 14 4 0.0 2.265 9.073 0.0
122 14 2 0.0 6.344 8.608 0.0
123 14 2 0.0 5.596 9.975 -0.902
124 14 2 0.0 5.596 9.976 0.901
125 14 2 0.0 4.044 7.962 0.907
126 14 2 0.0 4.043 7.961 -0.907
127 15 1 0.0 9.995 9.329 0.0
128 15 5 0.0 8.66 8.596 0.0
129 15 3 0.0 7.606 9.538 0.0
130 15 4 0.0 6.765 9.073 0.0
131 15 2 0.0 10.844 8.608 0.0
132 15 2 0.0 10.096 9.975 -0.902
133 15 2 0.0 10.096 9.976 0.901
134 15 2 0.0 8.544 7.962 0.907
135 15 2 0.0 8.543 7.961 -0.907
136 16 1 0.0 14.495 9.329 0.0
137 16 5 0.0 13.16 8.596 0.0
138 16 3 0.0 12.106 9.538 0.0
139 16 4 0.0 11.265 9.073 0.0
140 16 2 0.0 15.344 8.608 0.0
141 16 2 0.0 14.596 9.975 -0.902
142 16 2 0.0 14.596 9.976 0.901
143 16 2 0.0 13.044 7.962 0.907
144 16 2 0.0 13.043 7.961 -0.907
145 17 1 0.0 18.995 9.329 0.0
146 17 5 0.0 17.66 8.596 0.0
147 17 3 0.0 16.606 9.538 0.0
148 17 4 0.0 15.765 9.073 0.0
149 17 2 0.0 19.844 8.608 0.0
150 17 2 0.0 19.096 9.975 -0.902
151 17 2 0.0 19.096 9.976 0.901
152 17 2 0.0 17.544 7.962 0.907
153 17 2 0.0 17.543 7.961 -0.907
154 18 1 0.0 23.495 9.329 0.0
155 18 5 0.0 22.16 8.596 0.0
156 18 3 0.0 21.106 9.538 0.0
157 18 4 0.0 20.265 9.073 0.0
158 18 2 0.0 24.344 8.608 0.0
159 18 2 0.0 23.596 9.975 -0.902
160 18 2 0.0 23.596 9.976 0.901
161 18 2 0.0 22.044 7.962 0.907
162 18 2 0.0 22.043 7.961 -0.907
163 19 1 0.0 0.995 13.829 0.0
164 19 5 0.0 -0.34 13.096 0.0
165 19 3 0.0 -1.394 14.038 0.0
166 19 4 0.0 -2.235 13.573 0.0
167 19 2 0.0 1.844 13.108 0.0
168 19 2 0.0 1.096 14.475 -0.902
169 19 2 0.0 1.096 14.476 0.901
170 19 2 0.0 -0.456 12.462 0.907
171 19 2 0.0 -0.457 12.461 -0.907
172 20 1 0.0 5.495 13.829 0.0
173 20 5 0.0 4.16 13.096 0.0
174 20 3 0.0 3.106 14.038 0.0
175 20 4 0.0 2.265 13.573 0.0
176 20 2 0.0 6.344 13.108 0.0
177 20 2 0.0 5.596 14.475 -0.902
178 20 2 0.0 5.596 14.476 0.901
179 20 2 0.0 4.044 12.462 0.907
180 20 2 0.0 4.043 12.461 -0.907
181 21 1 0.0 9.995 13.829 0.0
182 21 5 0.0 8.66 13.096 0.0
183 21 3 0.0 7.606 14.038 0.0
184 21 4 0.0 6.765 13.573 0.0
185 21 2 0.0 10.844 13.108 0.0
186 21 2 0.0 10.096 14.475 -0.902
187 21 2 0.0 10.096 14.476 0.901
188 21 2 0.0 8.544 12.462 0.907
189 21 2 0.0 8.543 12.461 -0.907
190 22 1 0.0 14.495 13.829 0.0
191 22 5 0.0 13.16 13.096 0.0
192 22 3 0.0 12.106 14.038 0.0
193 22 4 0.0 11.265 13.573 0.0
194 22 2 0.0 15.344 13.108 0.0
195 22 2 0.0 14.596 14.475 -0.902
196 22 2 0.0 14.596 14.476 0.901
197 22 2 0.0 13.044 12.462 0.907
198 22 2 0.0 13.043 12.461 -0.907
199 23 1 0.0 18.995 13.829 0.0
200 23 5 0.0 17.66 13.096 0.0
201 23 3 0.0 16.606 14.038 0.0
202 23 4 0.0 15.765 13.573 0.0
203 23 2 0.0 19.844 13.108 0.0
204 23 2 0.0 19.096 14.475 -0.902
205 23 2 0.0 19.096 14.476 0.901
206 23 2 0.0 17.544 12.462 0.907
207 23 2 0.0 17.543 12.461 -0.907
208 24 1 0.0 23.495 13.829 0.0
209 24 5 0.0 22.16 13.096 0.0
210 24 3 0.0 21.106 14.038 0.0
211 24 4 0.0 20.265 13.573 0.0
212 24 2 0.0 24.344 13.108 0.0
213 24 2 0.0 23.596 14.475 -0.902
214 24 2 0.0 23.596 14.476 0.901
215 24 2 0.0 22.044 12.462 0.907
216 24 2 0.0 22.043 12.461 -0.907
217 25 1 0.0 0.995 18.329 0.0
218 25 5 0.0 -0.34 17.596 0.0
219 25 3 0.0 -1.394 18.538 0.0
220 25 4 0.0 -2.235 18.073 0.0
221 25 2 0.0 1.844 17.608 0.0
222 25 2 0.0 1.096 18.975 -0.902
223 25 2 0.0 1.096 18.976 0.901
224 25 2 0.0 -0.456 16.962 0.907
225 25 2 0.0 -0.457 16.961 -0.907
226 26 1 0.0 5.495 18.329 0.0
227 26 5 0.0 4.16 17.596 0.0
228 26 3 0.0 3.106 18.538 0.0
229 26 4 0.0 2.265 18.073 0.0
230 26 2 0.0 6.344 17.608 0.0
231 26 2 0.0 5.596 18.975 -0.902
232 26 2 0.0 5.596 18.976 0.901
233 26 2 0.0 4.044 16.962 0.907
234 26 2 0.0 4.043 16.961 -0.907
235 27 1 0.0 9.995 18.329 0.0
236 27 5 0.0 8.66 17.596 0.0
237 27 3 0.0 7.606 18.538 0.0
238 27 4 0.0 6.765 18.073 0.0
239 27 2 0.0 10.844 17.608 0.0
240 27 2 0.0 10.096 18.975 -0.902
241 27 2 0.0 10.096 18.976 0.901
242 27 2 0.0 8.544 16.962 0.907
243 27 2 0.0 8.543 16.961 -0.907
244 28 1 0.0 14.495 18.329 0.0
245 28 5 0.0 13.16 17.596 0.0
246 28 3 0.0 12.106 18.538 0.0
247 28 4 0.0 11.265 18.073 0.0
248 28 2 0.0 15.344 17.608 0.0
249 28 2 0.0 14.596 18.975 -0.902
250 28 2 0.0 14.596 18.976 0.901
251 28 2 0.0 13.044 16.962 0.907
252 28 2 0.0 13.043 16.961 -0.907
253 29 1 0.0 18.995 18.329 0.0
254 29 5 0.0 17.66 17.596 0.0
255 29 3 0.0 16.606 18.538 0.0
256 29 4 0.0 15.765 18.073 0.0
257 29 2 0.0 19.844 17.608 0.0
258 29 2 0.0 19.096 18.975 -0.902
259 29 2 0.0 19.096 18.976 0.901
260 29 2 0.0 17.544 16.962 0.907
261 29 2 0.0 17.543 16.961 -0.907
262 30 1 0.0 23.495 18.329 0.0
263 30 5 0.0 22.16 17.596 0.0
264 30 3 0.0 21.106 18.538 0.0
265 30 4 0.0 20.265 18.073 0.0
266 30 2 0.0 24.344 17.608 0.0
267 30 2 0.0 23.596 18.975 -0.902
268 30 2 0.0 23.596 18.976 0.901
269 30 2 0.0 22.044 16.962 0.907
270 30 2 0.0 22.043 16.961 -0.907
271 31 1 0.0 0.995 22.829 0.0
272 31 5 0.0 -0.34 22.096 0.0
273 31 3 0.0 -1.394 23.038 0.0
274 31 4 0.0 -2.235 22.573 0.0
275 31 2 0.0 1.844 22.108 0.0
276 31 2 0.0 1.096 23.475 -0.902
277 31 2 0.0 1.096 23.476 0.901
278 31 2 0.0 -0.456 21.462 0.907
279 31 2 0.0 -0.457 21.461 -0.907
280 32 1 0.0 5.495 22.829 0.0
281 32 5 0.0 4.16 22.096 0.0
282 32 3 0.0 3.106 23.038 0.0
283 32 4 0.0 2.265 22.573 0.0
284 32 2 0.0 6.344 22.108 0.0
285 32 2 0.0 5.596 23.475 -0.902
286 32 2 0.0 5.596 23.476 0.901
287 32 2 0.0 4.044 21.462 0.907
288 32 2 0.0 4.043 21.461 -0.907
289 33 1 0.0 9.995 22.829 0.0
290 33 5 0.0 8.66 22.096 0.0
291 33 3 0.0 7.606 23.038 0.0
292 33 4 0.0 6.765 22.573 0.0
293 33 2 0.0 10.844 22.108 0.0
294 33 2 0.0 10.096 23.475 -0.902
295 33 2 0.0 10.096 23.476 0.901
296 33 2 0.0 8.544 21.462 0.907
297 33 2 0.0 8.543 21.461 -0.907
298 34 1 0.0 14.495 22.829 0.0
299 34 5 0.0 13.16 22.096 0.0
300 34 3 0.0 12.106 23.038 0.0
301 34 4 0.0 11.265 22.573 0.0
302 34 2 0.0 15.344 22.108 0.0
303 34 2 0.0 14.596 23.475 -0.902
304 34 2 0.0 14.596 23.476 0.901
305 34 2 0.0 13.044 21.462 0.907
306 34 2 0.0 13.043 21.461 -0.907
307 35 1 0.0 18.995 22.829 0.0
308 35 5 0.0 17.66 22.096 0.0
309 35 3 0.0 16.606 23.038 0.0
310 35 4 0.0 15.765 22.573 0.0
311 35 2 0.0 19.844 22.108 0.0
312 35 2 0.0 19.096 23.475 -0.902
313 35 2 0.0 19.096 23.476 0.901
314 35 2 0.0 17.544 21.462 0.907
315 35 2 0.0 17.543 21.461 -0.907
316 36 1 0.0 23.495 22.829 0.0
317 36 5 0.0 22.16 22.096 0.0
318 36 3 0.0 21.106 23.038 0.0
319 36 4 0.0 20.265 22.573 0.0
320 36 2 0.0 24.344 22.108 0.0
321 36 2 0.0 23.596 23.475 -0.902
322 36 2 0.0 23.596 23.476 0.901
323 36 2 0.0 22.044 21.462 0.907
324 36 2 0.0 22.043 21.461 -0.907
325 37 1 0.0 0.995 0.329 4.5
326 37 5 0.0 -0.34 -0.404 4.5
327 37 3 0.0 -1.394 0.538 4.5
328 37 4 0.0 -2.235 0.073 4.5
329 37 2 0.0 1.844 -0.392 4.5
330 37 2 0.0 1.096 0.975 3.598
331 37 2 0.0 1.096 0.976 5.401
332 37 2 0.0 -0.456 -1.038 5.407
333 37 2 0.0 -0.457 -1.039 3.593
334 38 1 0.0 5.495 0.329 4.5
335 38 5 0.0 4.16 -0.404 4.5
336 38 3 0.0 3.106 0.538 4.5
337 38 4 0.0 2.265 0.073 4.5
338 38 2 0.0 6.344 -0.392 4.5
339 38 2 0.0 5.596 0.975 3.598
340 38 2 0.0 5.596 0.976 5.401
341 38 2 0.0 4.044 -1.038 5.407
342 38 2 0.0 4.043 -1.039 3.593
343 39 1 0.0 9.995 0.329 4.5
344 39 5 0.0 8.66 -0.404 4.5
345 39 3 0.0 7.606 0.538 4.5
346 39 4 0.0 6.765 0.073 4.5
347 39 2 0.0 10.844 -0.392 4.5
348 39 2 0.0 10.096 0.975 3.598
349 39 2 0.0 10.096 0.976 5.401
350 39 2 0.0 8.544 -1.038 5.407
351 39 2 0.0 8.543 -1.039 3.593
352 40 1 0.0 14.495 0.329 4.5
353 40 5 0.0 13.16 -0.404 4.5
354 40 3 0.0 12.106 0.538 4.5
355 40 4 0.0 11.265 0.073 4.5
356 40 2 0.0 15.344 -0.392 4.5
357 40 2 0.0 14.596 0.975 3.598
358 40 2 0.0 14.596 0.976 5.401
359 40 2 0.0 13.044 -1.038 5.407
360 40 2 0.0 13.043 -1.039 3.593
361 41 1 0.0 18.995 0.329 4.5
362 41 5 0.0 17.66 -0.404 4.5
363 41 3 0.0 16.606 0.538 4.5
364 41 4 0.0 15.765 0.073 4.5
365 41 2 0.0 19.844 -0.392 4.5
366 41 2 0.0 19.096 0.975 3.598
367 41 2 0.0 19.096 0.976 5.401
368 41 2 0.0 17.544 -1.038 5.407
369 41 2 0.0 17.543 -1.039 3.593
370 42 1 0.0 23.495 0.329 4.5
371 42 5 0.0 22.16 -0.404 4.5
372 42 3 0.0 21.106 0.538 4.5
373 42 4 0.0 20.265 0.073 4.5
374 42 2 0.0 24.344 -0.392 4.5
375 42 2 0.0 23.596 0.975 3.598
376 42 2 0.0 23.596 0.976 5.401
377 42 2 0.0 22.044 -1.038 5.407
378 42 2 0.0 22.043 -1.039 3.593
379 43 1 0.0 0.995 4.829 4.5
380 43 5 0.0 -0.34 4.096 4.5
381 43 3 0.0 -1.394 5.038 4.5
382 43 4 0.0 -2.235 4.573 4.5
383 43 2 0.0 1.844 4.108 4.5
384 43 2 0.0 1.096 5.475 3.598
385 43 2 0.0 1.096 5.476 5.401
386 43 2 0.0 -0.456 3.462 5.407
387 43 2 0.0 -0.457 3.461 3.593
388 44 1 0.0 5.495 4.829 4.5
389 44 5 0.0 4.16 4.096 4.5
390 44 3 0.0 3.106 5.038 4.5
391 44 4 0.0 2.265 4.573 4.5
392 44 2 0.0 6.344 4.108 4.5
393 44 2 0.0 5.596 5.475 3.598
394 44 2 0.0 5.596 5.476 5.401
395 44 2 0.0 4.044 3.462 5.407
396 44 2 0.0 4.043 3.461 3.593
397 45 1 0.0 9.995 4.829 4.5
398 45 5 0.0 8.66 4.096 4.5
399 45 3 0.0 7.606 5.038 4.5
400 45 4 0.0 6.765 4.573 4.5
401 45 2 0.0 10.844 4.108 4.5
402 45 2 0.0 10.096 5.475 3.598
403 45 2 0.0 10.096 5.476 5.401
404 45 2 0.0 8.544 3.462 5.407
405 45 2 0.0 8.543 3.461 3.593
406 46 1 0.0 14.495 4.829 4.5
407 46 5 0.0 13.16 4.096 4.5
408 46 3 0.0 12.106 5.038 4.5
409 46 4 0.0 11.265 4.573 4.5
410 46 2 0.0 15.344 4.108 4.5
411 46 2 0.0 14.596 5.475 3.598
412 46 2 0.0 14.596 5.476 5.401
413 46 2 0.0 13.044 3.462 5.407
414 46 2 0.0 13.043 3.461 3.593
415 47 1 0.0 18.995 4.829 4.5
416 47 5 0.0 17.66 4.096 4.5
417 47 3 0.0 16.606 5.038 4.5
418 47 4 0.0 15.765 4.573 4.5
419 47 2 0.0 19.844 4.108 4.5
420 47 2 0.0 19.096 5.475 3.598
421 47 2 0.0 19.096 5.476 5.401
422 47 2 0.0 17.544 3.462 5.407
423 47 2 0.0 17.543 3.461 3.593
424 48 1 0.0 23.495 4.829 4.5
425 48 5 0.0 22.16 4.096 4.5
426 48 3 0.0 21.106 5.038 4.5
427 48 4 0.0 20.265 4.573 4.5
428 48 2 0.0 24.344 4.108 4.5
429 48 2 0.0 23.596 5.475 3.598
430 48 2 0.0 23.596 5.476 5.401
431 48 2 0.0 22.044 3.462 5.407
432 48 2 0.0 22.043 3.461 3.593
433 49 1 0.0 0.995 9.329 4.5
434 49 5 0.0 -0.34 8.596 4.5
435 49 3 0.0 -1.394 9.538 4.5
436 49 4 0.0 -2.235 9.073 4.5
437 49 2 0.0 1.844 8.608 4.5
438 49 2 0.0 1.096 9.975 3.598
439 49 2 0.0 1.096 9.976 5.401
440 49 2 0.0 -0.456 7.962 5.407
441 49 2 0.0 -0.457 7.961 3.593
442 50 1 0.0 5.495 9.329 4.5
443 50 5 0.0 4.16 8.596 4.5
444 50 3 0.0 3.106 9.538 4.5
445 50 4 0.0 2.265 9.073 4.5
446 50 2 0.0 6.344 8.608 4.5
447 50 2 0.0 5.596 9.975 3.598
448 50 2 0.0 5.596 9.976 5.401
449 50 2 0.0 4.044 7.962 5.407
450 50 2 0.0 4.043 7.961 3.593
451 51 1 0.0 9.995 9.329 4.5
452 51 5 0.0 8.66 8.596 4.5
453 51 3 0.0 7.606 9.538 4.5
454 51 4 0.0 6.765 9.073 4.5
455 51 2 0.0 10.844 8.608 4.5
456 51 2 0.0 10.096 9.975 3.598
457 51 2 0.0 10.096 9.976 5.401
458 51 2 0.0 8.544 7.962 5.407
459 51 2 0.0 8.543 7.961 3.593
460 52 1 0.0 14.495 9.329 4.5
461 52 5 0.0 13.16 8.596 4.5
462 52 3 0.0 12.106 9.538 4.5
463 52 4 0.0 11.265 9.073 4.5
464 52 2 0.0 15.344 8.608 4.5
465 52 2 0.0 14.596 9.975 3.598
466 52 2 0.0 14.596 9.976 5.401
467 52 2 0.0 13.044 7.962 5.407
468 52 2 0.0 13.043 7.961 3.593
469 53 1 0.0 18.995 9.329 4.5
470 53 5 0.0 17.66 8.596 4.5
471 53 3 0.0 16.606 9.538 4.5
472 53 4 0.0 15.765 9.073 4.5
473 53 2 0.0 19.844 8.608 4.5
474 53 2 0.0 19.096 9.975 3.598
475 53 2 0.0 19.096 9.976 5.401
476 53 2 0.0 17.544 7.962 5.407
477 53 2 0.0 17.543 7.961 3.593
478 54 1 0.0 23.495 9.329 4.5
479 54 5 0.0 22.16 8.596 4.5
480 54 3 0.0 21.106 9.538 4.5
481 54 4 0.0 20.265 9.073 4.5
482 54 2 0.0 24.344 8.608 4.5
483 54 2 0.0 23.596 9.975 3.598
484 54 2 0.0 23.596 9.976 5.401
485 54 2 0.0 22.044 7.962 5.407
486 54 2 0.0 22.043 7.961 3.593
487 55 1 0.0 0.995 13.829 4.5
488 55 5 0.0 -0.34 13.096 4.5
489 55 3 0.0 -1.394 14.038 4.5
490 55 4 0.0 -2.235 13.573 4.5
491 55 2 0.0 1.844 13.108 4.5
492 55 2 0.0 1.096 14.475 3.598
493 55 2 0.0 1.096 14.476 5.401
494 55 2 0.0 -0.456 12.462 5.407
495 55 2 0.0 -0.457 12.461 3.593
496 56 1 0.0 5.495 13.829 4.5
497 56 5 0.0 4.16 13.096 4.5
498 56 3 0.0 3.106 14.038 4.5
499 56 4 0.0 2.265 13.573 4.5
500 56 2 0.0 6.344 13.108 4.5
501 56 2 0.0 5.596 14.475 3.598
502 56 2 0.0 5.596 14.476 5.401
503 56 2 0.0 4.044 12.462 5.407
504 56 2 0.0 4.043 12.461 3.593
505 57 1 0.0 9.995 13.829 4.5
506 57 5 0.0 8.66 13.096 4.5
507 57 3 0.0 7.606 14.038 4.5
508 57 4 0.0 6.765 13.573 4.5
509 57 2 0.0 10.844 13.108 4.5
510 57 2 0.0 10.096 14.475 3.598
511 57 2 0.0 10.096 14.476 5.401
512 57 2 0.0 8.544 12.462 5.407
513 57 2 0.0 8.543 12.461 3.593
514 58 1 0.0 14.495 13.829 4.5
515 58 5 0.0 13.16 13.096 4.5
516 58 3 0.0 12.106 14.038 4.5
517 58 4 0.0 11.265 13.573 4.5
518 58 2 0.0 15.344 13.108 4.5
519 58 2 0.0 14.596 14.475 3.598
520 58 2 0.0 14.596 14.476 5.401
521 58 2 0.0 13.044 12.462 5.407
522 58 2 0.0 13.043 12.461 3.593
523 59 1 0.0 18.995 13.829 4.5
524 59 5 0.0 17.66 13.096 4.5
525 59 3 0.0 16.606 14.038 4.5
526 59 4 0.0 15.765 13.573 4.5
527 59 2 0.0 19.844 13.108 4.5
528 59 2 0.0 19.096 14.475 3.598
529 59 2 0.0 19.096 14.476 5.401
530 59 2 0.0 17.544 12.462 5.407
531 59 2 0.0 17.543 12.461 3.593
532 60 1 0.0 23.495 13.829 4.5
533 60 5 0.0 22.16 13.096 4.5
534 60 3 0.0 21.106 14.038 4.5
535 60 4 0.0 20.265 13.573 4.5
536 60 2 0.0 24.344 13.108 4.5
537 60 2 0.0 23.596 14.475 3.598
538 60 2 0.0 23.596 14.476 5.401
539 60 2 0.0 22.044 12.462 5.407
540 60 2 0.0 22.043 12.461 3.593
541 61 1 0.0 0.995 18.329 4.5
542 61 5 0.0 -0.34 17.596 4.5
543 61 3 0.0 -1.394 18.538 4.5
544 61 4 0.0 -2.235 18.073 4.5
545 61 2 0.0 1.844 17.608 4.5
546 61 2 0.0 1.096 18.975 3.598
547 61 2 0.0 1.096 18.976 5.401
548 61 2 0.0 -0.456 16.962 5.407
549 61 2 0.0 -0.457 16.961 3.593
550 62 1 0.0 5.495 18.329 4.5
551 62 5 0.0 4.16 17.596 4.5
552 62 3 0.0 3.106 18.538 4.5
553 62 4 0.0 2.265 18.073 4.5
554 62 2 0.0 6.344 17.608 4.5
555 62 2 0.0 5.596 18.975 3.598
556 62 2 0.0 5.596 18.976 5.401
557 62 2 0.0 4.044 16.962 5.407
558 62 2 0.0 4.043 16.961 3.593
559 63 1 0.0 9.995 18.329 4.5
560 63 5 0.0 8.66 17.596 4.5
561 63 3 0.0 7.606 18.538 4.5
562 63 4 0.0 6.765 18.073 4.5
563 63 2 0.0 10.844 17.608 4.5
564 63 2 0.0 10.096 18.975 3.598
565 63 2 0.0 10.096 18.976 5.401
566 63 2 0.0 8.544 16.962 5.407
567 63 2 0.0 8.543 16.961 3.593
568 64 1 0.0 14.495 18.329 4.5
569 64 5 0.0 13.16 17.596 4.5
570 64 3 0.0 12.106 18.538 4.5
571 64 4 0.0 11.265 18.073 4.5
572 64 2 0.0 15.344 17.608 4.5
573 64 2 0.0 14.596 18.975 3.598
574 64 2 0.0 14.596 18.976 5.401
575 64 2 0.0 13.044 16.962 5.407
576 64 2 0.0 13.043 16.961 3.593
577 65 1 0.0 18.995 18.329 4.5
578 65 5 0.0 17.66 17.596 4.5
579 65 3 0.0 16.606 18.538 4.5
580 65 4 0.0 15.765 18.073 4.5
581 65 2 0.0 19.844 17.608 4.5
582 65 2 0.0 19.096 18.975 3.598
583 65 2 0.0 19.096 18.976 5.401
584 65 2 0.0 17.544 16.962 5.407
585 65 2 0.0 17.543 16.961 3.593
586 66 1 0.0 23.495 18.329 4.5
587 66 5 0.0 22.16 17.596 4.5
588 66 3 0.0 21.106 18.538 4.5
589 66 4 0.0 20.265 18.073 4.5
590 66 2 0.0 24.344 17.608 4.5
591 66 2 0.0 23.596 18.975 3.598
592 66 2 0.0 23.596 18.976 5.401
593 66 2 0.0 22.044 16.962 5.407
594 66 2 0.0 22.043 16.961 3.593
595 67 1 0.0 0.995 22.829 4.5
596 67 5 0.0 -0.34 22.096 4.5
597 67 3 0.0 -1.394 23.038 4.5
598 67 4 0.0 -2.235 22.573 4.5
599 67 2 0.0 1.844 22.108 4.5
600 67 2 0.0 1.096 23.475 3.598
601 67 2 0.0 1.096 23.476 5.401
602 67 2 0.0 -0.456 21.462 5.407
603 67 2 0.0 -0.457 21.461 3.593
604 68 1 0.0 5.495 22.829 4.5
605 68 5 0.0 4.16 22.096 4.5
606 68 3 0.0 3.106 23.038 4.5
607 68 4 0.0 2.265 22.573 4.5
608 68 2 0.0 6.344 22.108 4.5
609 68 2 0.0 5.596 23.475 3.598
610 68 2 0.0 5.596 23.476 5.401
611 68 2 0.0 4.044 21.462 5.407
612 68 2 0.0 4.043 21.461 3.593
613 69 1 0.0 9.995 22.829 4.5
614 69 5 0.0 8.66 22.096 4.5
615 69 3 0.0 7.606 23.038 4.5
616 69 4 0.0 6.765 22.573 4.5
617 69 2 0.0 10.844 22.108 4.5
618 69 2 0.0 10.096 23.475 3.598
619 69 2 0.0 10.096 23.476 5.401
620 69 2 0.0 8.544 21.462 5.407
621 69 2 0.0 8.543 21.461 3.593
622 70 1 0.0 14.495 22.829 4.5
623 70 5 0.0 13.16 22.096 4.5
624 70 3 0.0 12.106 23.038 4.5
625 70 4 0.0 11.265 22.573 4.5
626 70 2 0.0 15.344 22.108 4.5
627 70 2 0.0 14.596 23.475 3.598
628 70 2 0.0 14.596 23.476 5.401
629 70 2 0.0 13.044 21.462 5.407
630 70 2 0.0 13.043 21.461 3.593
631 71 1 0.0 18.995 22.829 4.5
632 71 5 0.0 17.66 22.096 4.5
633 71 3 0.0 16.606 23.038 4.5
634 71 4 0.0 15.765 22.573 4.5
635 71 2 0.0 19.844 22.108 4.5
636 71 2 0.0 19.096 23.475 3.598
637 71 2 0.0 19.096 23.476 5.401
638 71 2 0.0 17.544 21.462 5.407
639 71 2 0.0 17.543 21.461 3.593
640 72 1 0.0 23.495 22.829 4.5
641 72 5 0.0 22.16 22.096 4.5
642 72 3 0.0 21.106 23.038 4.5
643 72 4 0.0 20.265 22.573 4.5
644 72 2 0.0 24.344 22.108 4.5
645 72 2 0.0 23.596 23.475 3.598
646 72 2 0.0 23.596 23.476 5.401
647 72 2 0.0 22.044 21.462 5.407
648 72 2 0.0 22.043 21.461 3.593
649 73 1 0.0 0.995 0.329 9.0
650 73 5 0.0 -0.34 -0.404 9.0
651 73 3 0.0 -1.394 0.538 9.0
652 73 4 0.0 -2.235 0.073 9.0
653 73 2 0.0 1.844 -0.392 9.0
654 73 2 0.0 1.096 0.975 8.098
655 73 2 0.0 1.096 0.976 9.901
656 73 2 0.0 -0.456 -1.038 9.907
657 73 2 0.0 -0.457 -1.039 8.093
658 74 1 0.0 5.495 0.329 9.0
659 74 5 0.0 4.16 -0.404 9.0
660 74 3 0.0 3.106 0.538 9.0
661 74 4 0.0 2.265 0.073 9.0
662 74 2 0.0 6.344 -0.392 9.0
663 74 2 0.0 5.596 0.975 8.098
664 74 2 0.0 5.596 0.976 9.901
665 74 2 0.0 4.044 -1.038 9.907
666 74 2 0.0 4.043 -1.039 8.093
667 75 1 0.0 9.995 0.329 9.0
668 75 5 0.0 8.66 -0.404 9.0
669 75 3 0.0 7.606 0.538 9.0
670 75 4 0.0 6.765 0.073 9.0
671 75 2 0.0 10.844 -0.392 9.0
672 75 2 0.0 10.096 0.975 8.098
673 75 2 0.0 10.096 0.976 9.901
674 75 2 0.0 8.544 -1.038 9.907
675 75 2 0.0 8.543 -1.039 8.093
676 76 1 0.0 14.495 0.329 9.0
677 76 5 0.0 13.16 -0.404 9.0
678 76 3 0.0 12.106 0.538 9.0
679 76 4 0.0 11.265 0.073 9.0
680 76 2 0.0 15.344 -0.392 9.0
681 76 2 0.0 14.596 0.975 8.098
682 76 2 0.0 14.596 0.976 9.901
683 76 2 0.0 13.044 -1.038 9.907
684 76 2 0.0 13.043 -1.039 8.093
685 77 1 0.0 18.995 0.329 9.0
686 77 5 0.0 17.66 -0.404 9.0
687 77 3 0.0 16.606 0.538 9.0
688 77 4 0.0 15.765 0.073 9.0
689 77 2 0.0 19.844 -0.392 9.0
690 77 2 0.0 19.096 0.975 8.098
691 77 2 0.0 19.096 0.976 9.901
692 77 2 0.0 17.544 -1.038 9.907
693 77 2 0.0 17.543 -1.039 8.093
694 78 1 0.0 23.495 0.329 9.0
695 78 5 0.0 22.16 -0.404 9.0
696 78 3 0.0 21.106 0.538 9.0
697 78 4 0.0 20.265 0.073 9.0
698 78 2 0.0 24.344 -0.392 9.0
699 78 2 0.0 23.596 0.975 8.098
700 78 2 0.0 23.596 0.976 9.901
701 78 2 0.0 22.044 -1.038 9.907
702 78 2 0.0 22.043 -1.039 8.093
703 79 1 0.0 0.995 4.829 9.0
704 79 5 0.0 -0.34 4.096 9.0
705 79 3 0.0 -1.394 5.038 9.0
706 79 4 0.0 -2.235 4.573 9.0
707 79 2 0.0 1.844 4.108 9.0
708 79 2 0.0 1.096 5.475 8.098
709 79 2 0.0 1.096 5.476 9.901
710 79 2 0.0 -0.456 3.462 9.907
711 79 2 0.0 -0.457 3.461 8.093
712 80 1 0.0 5.495 4.829 9.0
713 80 5 0.0 4.16 4.096 9.0
714 80 3 0.0 3.106 5.038 9.0
715 80 4 0.0 2.265 4.573 9.0
716 80 2 0.0 6.344 4.108 9.0
717 80 2 0.0 5.596 5.475 8.098
718 80 2 0.0 5.596 5.476 9.901
719 80 2 0.0 4.044 3.462 9.907
720 80 2 0.0 4.043 3.461 8.093
721 81 1 0.0 9.995 4.829 9.0
722 81 5 0.0 8.66 4.096 9.0
723 81 3 0.0 7.606 5.038 9.0
724 81 4 0.0 6.765 4.573 9.0
725 81 2 0.0 10.844 4.108 9.0
726 81 2 0.0 10.096 5.475 8.098
727 81 2 0.0 10.096 5.476 9.901
728 81 2 0.0 8.544 3.462 9.907
729 81 2 0.0 8.543 3.461 8.093
730 82 1 0.0 14.495 4.829 9.0
731 82 5 0.0 13.16 4.096 9.0
732 82 3 0.0 12.106 5.038 9.0
733 82 4 0.0 11.265 4.573 9.0
734 82 2 0.0 15.344 4.108 9.0
735 82 2 0.0 14.596 5.475 8.098
736 82 2 0.0 14.596 5.476 9.901
737 82 2 0.0 13.044 3.462 9.907
738 82 2 0.0 13.043 3.461 8.093
739 83 1 0.0 18.995 4.829 9.0
740 83 5 0.0 17.66 4.096 9.0
741 83 3 0.0 16.606 5.038 9.0
742 83 4 0.0 15.765 4.573 9.0
743 83 2 0.0 19.844 4.108 9.0
744 83 2 0.0 19.096 5.475 8.098
745 83 2 0.0 19.096 5.476 9.901
746 83 2 0.0 17.544 3.462 9.907
747 83 2 0.0 17.543 3.461 8.093
748 84 1 0.0 23.495 4.829 9.0
749 84 5 0.0 22.16 4.096 9.0
750 84 3 0.0 21.106 5.038 9.0
751 84 4 0.0 20.265 4.573 9.0
752 84 2 0.0 24.344 4.108 9.0
753 84 2 0.0 23.596 5.475 8.098
754 84 2 0.0 23.596 5.476 9.901
755 84 2 0.0 22.044 3.462 9.907
756 84 2 0.0 22.043 3.461 8.093
757 85 1 0.0 0.995 9.329 9.0
758 85 5 0.0 -0.34 8.596 9.0
759 85 3 0.0 -1.394 9.538 9.0
760 85 4 0.0 -2.235 9.073 9.0
761 85 2 0.0 1.844 8.608 9.0
762 85 2 0.0 1.096 9.975 8.098
763 85 2 0.0 1.096 9.976 9.901
764 85 2 0.0 -0.456 7.962 9.907
765 85 2 0.0 -0.457 7.961 8.093
766 86 1 0.0 5.495 9.329 9.0
767 86 5 0.0 4.16 8.596 9.0
768 86 3 0.0 3.106 9.538 9.0
769 86 4 0.0 2.265 9.073 9.0
770 86 2 0.0 6.344 8.608 9.0
771 86 2 0.0 5.596 9.975 8.098
772 86 2 0.0 5.596 9.976 9.901
773 86 2 0.0 4.044 7.962 9.907
774 86 2 0.0 4.043 7.961 8.093
775 87 1 0.0 9.995 9.329 9.0
776 87 5 0.0 8.66 8.596 9.0
777 87 3 0.0 7.606 9.538 9.0
778 87 4 0.0 6.765 9.073 9.0
779 87 2 0.0 10.844 8.608 9.0
780 87 2 0.0 10.096 9.975 8.098
781 87 2 0.0 10.096 9.976 9.901
782 87 2 0.0 8.544 7.962 9.907
783 87 2 0.0 8.543 7.961 8.093
784 88 1 0.0 14.495 9.329 9.0
785 88 5 0.0 13.16 8.596 9.0
786 88 3 0.0 12.106 9.538 9.0
787 88 4 0.0 11.265 9.073 9.0
788 88 2 0.0 15.344 8.608 9.0
789 88 2 0.0 14.596 9.975 8.098
790 88 2 0.0 14.596 9.976 9.901
791 88 2 0.0 13.044 7.962 9.907
792 88 2 0.0 13.043 7.961 8.093
793 89 1 0.0 18.995 9.329 9.0
794 89 5 0.0 17.66 8.596 9.0
795 89 3 0.0 16.606 9.538 9.0
796 89 4 0.0 15.765 9.073 9.0
797 89 2 0.0 19.844 8.608 9.0
798 89 2 0.0 19.096 9.975 8.098
799 89 2 0.0 19.096 9.976 9.901
800 89 2 0.0 17.544 7.962 9.907
801 89 2 0.0 17.543 7.961 8.093
802 90 1 0.0 23.495 9.329 9.0
803 90 5 0.0 22.16 8.596 9.0
804 90 3 0.0 21.106 9.538 9.0
805 90 4 0.0 20.265 9.073 9.0
806 90 2 0.0 24.344 8.608 9.0
807 90 2 0.0 23.596 9.975 8.098
808 90 2 0.0 23.596 9.976 9.901
809 90 2 0.0 22.044 7.962 9.907
810 90 2 0.0 22.043 7.961 8.093
811 91 1 0.0 0.995 13.829 9.0
812 91 5 0.0 -0.34 13.096 9.0
813 91 3 0.0 -1.394 14.038 9.0
814 91 4 0.0 -2.235 13.573 9.0
815 91 2 0.0 1.844 13.108 9.0
816 91 2 0.0 1.096 14.475 8.098
817 91 2 0.0 1.096 14.476 9.901
818 91 2 0.0 -0.456 12.462 9.907
819 91 2 0.0 -0.457 12.461 8.093
820 92 1 0.0 5.495 13.829 9.0
821 92 5 0.0 4.16 13.096 9.0
822 92 3 0.0 3.106 14.038 9.0
823 92 4 0.0 2.265 13.573 9.0
824 92 2 0.0 6.344 13.108 9.0
825 92 2 0.0 5.596 14.475 8.098
826 92 2 0.0 5.596 14.476 9.901
827 92 2 0.0 4.044 12.462 9.907
828 92 2 0.0 4.043 12.461 8.093
829 93 1 0.0 9.995 13.829 9.0
830 93 5 0.0 8.66 13.096 9.0
831 93 3 0.0 7.606 14.038 9.0
832 93 4 0.0 6.765 13.573 9.0
833 93 2 0.0 10.844 13.108 9.0
834 93 2 0.0 10.096 14.475 8.098
835 93 2 0.0 10.096 14.476 9.901
836 93 2 0.0 8.544 12.462 9.907
837 93 2 0.0 8.543 12.461 8.093
838 94 1 0.0 14.495 13.829 9.0
839 94 5 0.0 13.16 13.096 9.0
840 94 3 0.0 12.106 14.038 9.0
841 94 4 0.0 11.265 13.573 9.0
842 94 2 0.0 15.344 13.108 9.0
843 94 2 0.0 14.596 14.475 8.098
844 94 2 0.0 14.596 14.476 9.901
845 94 2 0.0 13.044 12.462 9.907
846 94 2 0.0 13.043 12.461 8.093
847 95 1 0.0 18.995 13.829 9.0
848 95 5 0.0 17.66 13.096 9.0
849 95 3 0.0 16.606 14.038 9.0
850 95 4 0.0 15.765 13.573 9.0
851 95 2 0.0 19.844 13.108 9.0
852 95 2 0.0 19.096 14.475 8.098
853 95 2 0.0 19.096 14.476 9.901
854 95 2 0.0 17.544 12.462 9.907
855 95 2 0.0 17.543 12.461 8.093
856 96 1 0.0 23.495 13.829 9.0
857 96 5 0.0 22.16 13.096 9.0
858 96 3 0.0 21.106 14.038 9.0
859 96 4 0.0 20.265 13.573 9.0
860 96 2 0.0 24.344 13.108 9.0
861 96 2 0.0 23.596 14.475 8.098
862 96 2 0.0 23.596 14.476 9.901
863 96 2 0.0 22.044 12.462 9.907
864 96 2 0.0 22.043 12.461 8.093
865 97 1 0.0 0.995 18.329 9.0
866 97 5 0.0 -0.34 17.596 9.0
867 97 3 0.0 -1.394 18.538 9.0
868 97 4 0.0 -2.235 18.073 9.0
869 97 2 0.0 1.844 17.608 9.0
870 97 2 0.0 1.096 18.975 8.098
871 97 2 0.0 1.096 18.976 9.901
872 97 2 0.0 -0.456 16.962 9.907
873 97 2 0.0 -0.457 16.961 8.093
874 98 1 0.0 5.495 18.329 9.0
875 98 5 0.0 4.16 17.596 9.0
876 98 3 0.0 3.106 18.538 9.0
877 98 4 0.0 2.265 18.073 9.0
878 98 2 0.0 6.344 17.608 9.0
879 98 2 0.0 5.596 18.975 8.098
880 98 2 0.0 5.596 18.976 9.901
881 98 2 0.0 4.044 16.962 9.907
882 98 2 0.0 4.043 16.961 8.093
883 99 1 0.0 9.995 18.329 9.0
884 99 5 0.0 8.66 17.596 9.0
885 99 3 0.0 7.606 18.538 9.0
886 99 4 0.0 6.765 18.073 9.0
887 99 2 0.0 10.844 17.608 9.0
888 99 2 0.0 10.096 18.975 8.098
889 99 2 0.0 10.096 18.976 9.901
890 99 2 0.0 8.544 16.962 9.907
891 99 2 0.0 8.543 16.961 8.093
892 100 1 0.0 14.495 18.329 9.0
893 100 5 0.0 13.16 17.596 9.0
894 100 3 0.0 12.106 18.538 9.0
895 100 4 0.0 11.265 18.073 9.0
896 100 2 0.0 15.344 17.608 9.0
897 100 2 0.0 14.596 18.975 8.098
898 100 2 0.0 14.596 18.976 9.901
899 100 2 0.0 13.044 16.962 9.907
900 100 2 0.0 13.043 16.961 8.093
901 101 1 0.0 18.995 18.329 9.0
902 101 5 0.0 17.66 17.596 9.0
903 101 3 0.0 16.606 18.538 9.0
904 101 4 0.0 15.765 18.073 9.0
905 101 2 0.0 19.844 17.608 9.0
906 101 2 0.0 19.096 18.975 8.098
907 101 2 0.0 19.096 18.976 9.901
908 101 2 0.0 17.544 16.962 9.907
909 101 2 0.0 17.543 16.961 8.093
910 102 1 0.0 23.495 18.329 9.0
911 102 5 0.0 22.16 17.596 9.0
912 102 3 0.0 21.106 18.538 9.0
913 102 4 0.0 20.265 18.073 9.0
914 102 2 0.0 24.344 17.608 9.0
915 102 2 0.0 23.596 18.975 8.098
916 102 2 0.0 23.596 18.976 9.901
917 102 2 0.0 22.044 16.962 9.907
918 102 2 0.0 22.043 16.961 8.093
919 103 1 0.0 0.995 22.829 9.0
920 103 5 0.0 -0.34 22.096 9.0
921 103 3 0.0 -1.394 23.038 9.0
922 103 4 0.0 -2.235 22.573 9.0
923 103 2 0.0 1.844 22.108 9.0
924 103 2 0.0 1.096 23.475 8.098
925 103 2 0.0 1.096 23.476 9.901
926 103 2 0.0 -0.456 21.462 9.907
927 103 2 0.0 -0.457 21.461 8.093
928 104 1 0.0 5.495 22.829 9.0
929 104 5 0.0 4.16 22.096 9.0
930 104 3 0.0 3.106 23.038 9.0
931 104 4 0.0 2.265 22.573 9.0
932 104 2 0.0 6.344 22.108 9.0
933 104 2 0.0 5.596 23.475 8.098
934 104 2 0.0 5.596 23.476 9.901
935 104 2 0.0 4.044 21.462 9.907
936 104 2 0.0 4.043 21.461 8.093
937 105 1 0.0 9.995 22.829 9.0
938 105 5 0.0 8.66 22.096 9.0
939 105 3 0.0 7.606 23.038 9.0
940 105 4 0.0 6.765 22.573 9.0
941 105 2 0.0 10.844 22.108 9.0
942 105 2 0.0 10.096 23.475 8.098
943 105 2 0.0 10.096 23.476 9.901
944 105 2 0.0 8.544 21.462 9.907
945 105 2 0.0 8.543 21.461 8.093
946 106 1 0.0 14.495 22.829 9.0
947 106 5 0.0 13.16 22.096 9.0
948 106 3 0.0 12.106 23.038 9.0
949 106 4 0.0 11.265 22.573 9.0
950 106 2 0.0 15.344 22.108 9.0
951 106 2 0.0 14.596 23.475 8.098
952 106 2 0.0 14.596 23.476 9.901