LAMMPS (11 Aug 2017)
LAMMPS (11 Aug 2017)
LAMMPS (11 Aug 2017)
Total wall time: 0:00:00
Lattice spacing in x,y,z = 5.7 5.7 5.7
Created orthogonal box = (0 0 0) to (28.5 28.5 28.5)
  1 by 1 by 1 MPI processor grid
LAMMPS (11 Aug 2017)
Total wall time: 0:00:00
Total wall time: 0:00:00
Created 500 atoms
Neighbor list info ...
  update every 1 steps, delay 0 steps, check yes
  max neighbors/atom: 2000, page size: 100000
  master list distance cutoff = 10.5
  ghost atom cutoff = 10.5
  binsize = 5.25, bins = 6 6 6
  1 neighbor lists, perpetual/occasional/extra = 1 0 0
  (1) pair lj/cut, perpetual
      attributes: half, newton on
      pair build: half/bin/atomonly/newton
      stencil: half/bin/3d/newton
      bin: standard
Setting up Verlet run ...
  Unit style    : metal
  Current step  : 0
  Time step     : 0.02
Per MPI rank memory allocation (min/avg/max) = 4.187 | 4.187 | 4.187 Mbytes
Step KinEng PotEng TotEng Temp 
       0    16.125203   -36.291337   -20.166134          250 
     100    8.5621828   -28.778035   -20.215852    132.74535 
     200    8.5073696   -28.730751   -20.223381    131.89554 
     300    8.2949315   -28.512761   -20.217829    128.60197 
     400    8.3651674   -28.588492   -20.223325    129.69088 
     500    8.0879677   -28.296299   -20.208331    125.39327 
     600    8.5038133   -28.727947   -20.224134    131.84041 
     700    8.2456143   -28.467503   -20.221888    127.83737 
     800      8.16939   -28.391852   -20.222462    126.65561 
     900    7.9798386   -28.208623   -20.228784    123.71687 
    1000    8.1455493   -28.358193   -20.212644      126.286 
    1100     7.872931   -28.096294   -20.223363    122.05941 
    1200      8.01014   -28.232036   -20.221896    124.18665 
    1300     8.365103   -28.586137   -20.221034    129.68989 
    1400    7.9126357   -28.131257   -20.218621    122.67498 
    1500    8.3666481   -28.588607   -20.221959    129.71384 
    1600    8.6074275   -28.829281   -20.221854    133.44681 
    1700    8.4785413   -28.695876   -20.217335     131.4486 
    1800    8.5447538   -28.766447   -20.221693    132.47513 
    1900    8.1618169   -28.384474   -20.222657     126.5382 
    2000    7.9995921    -28.21832   -20.218728    124.02312 
    2100     8.226522   -28.440862    -20.21434    127.54137 
    2200    7.8808514   -28.099497   -20.218646     122.1822 
    2300    8.2623528   -28.487874   -20.225521    128.09688 
    2400    8.4473988    -28.66685   -20.219451    130.96577 
    2500    8.2005297    -28.41988   -20.219351    127.13839 
    2600    8.1065874   -28.327906   -20.221319    125.68194 
    2700    8.3912997   -28.612218   -20.220918    130.09603 
    2800     8.143967   -28.365336   -20.221369    126.26146 
    2900    8.0226675   -28.243267   -20.220599    124.38088 
    3000    8.1593588   -28.380879    -20.22152    126.50009 
    3100    8.1712594    -28.38964    -20.21838     126.6846 
    3200    8.4788297   -28.703887   -20.225057    131.45307 
    3300    8.3713931   -28.593521   -20.222128    129.78741 
    3400    8.3322391   -28.550736   -20.218497    129.18037 
    3500    8.2577261    -28.47264   -20.214914    128.02515 
    3600     8.301784   -28.525084     -20.2233    128.70821 
    3700    8.0826755    -28.30812   -20.225445    125.31122 
    3800    8.2436236   -28.465811   -20.222187    127.80651 
    3900    8.4907028   -28.709658   -20.218955    131.63715 
    4000    8.2193406    -28.43914   -20.219799    127.43003 
    4100    8.4655257   -28.682156    -20.21663    131.24681 
    4200      8.01125   -28.236279   -20.225029    124.20386 
    4300    8.1432996   -28.360185   -20.216885    126.25112 
    4400    8.2671399   -28.488943   -20.221803     128.1711 
    4500    8.2467459   -28.460863   -20.214117    127.85492 
    4600    8.1367526   -28.350875   -20.214123    126.14961 
    4700    8.3732311   -28.591941    -20.21871     129.8159 
    4800    8.1192096   -28.337154   -20.217944    125.87763 
    4900    7.9970475   -28.212553   -20.215506    123.98367 
    5000    8.1727735   -28.393962   -20.221188    126.70807 
    5100    8.0739439   -28.291301   -20.217357    125.17585 
    5200    8.4683344   -28.684601   -20.216266    131.29035 
    5300    8.6650351   -28.890579   -20.225544    134.33994 
    5400    8.2933601   -28.512625   -20.219265    128.57761 
    5500    8.3229465   -28.542576    -20.21963    129.03631 
    5600      7.91763   -28.134746   -20.217116    122.75241 
    5700    8.2336234   -28.448464   -20.214841    127.65147 
    5800    8.1346533   -28.352348   -20.217695    126.11707 
    5900    8.4719305   -28.691484   -20.219554    131.34611 
    6000    8.0559213   -28.276874   -20.220953    124.89643 
    6100    8.2279231    -28.44696   -20.219037    127.56309 
    6200    8.3100673   -28.531509   -20.221442    128.83663 
    6300    8.3425099   -28.558656   -20.216146    129.33961 
    6400    8.1077914   -28.323507   -20.215716    125.70061 
    6500    8.1396925   -28.359973   -20.220281    126.19519 
    6600    8.4527587   -28.668112   -20.215353    131.04887 
    6700     8.419984   -28.645361   -20.225377    130.54074 
    6800     8.060199   -28.274939    -20.21474    124.96275 
    6900    8.1168506   -28.336469   -20.219618    125.84106 
    7000    7.9897895   -28.205425   -20.215636    123.87115 
    7100    8.1339078   -28.357392   -20.223484    126.10551 
    7200    8.2509843   -28.471432   -20.220447    127.92063 
    7300    8.0876202    -28.30959    -20.22197    125.38788 
    7400    8.2359359   -28.451496    -20.21556    127.68732 
    7500    8.2064548   -28.421655     -20.2152    127.23026 
    7600    8.1000605   -28.312188   -20.212128    125.58075 
    7700    8.3670171   -28.579912   -20.212895    129.71956 
    7800    8.1631231   -28.379845   -20.216722    126.55845 
    7900    8.0957671   -28.309453   -20.213686    125.51419 
    8000    8.4604617   -28.681398   -20.220936     131.1683 
    8100    8.3674326   -28.586261   -20.218829      129.726 
    8200    8.2013563   -28.424753   -20.223397    127.15121 
    8300    8.2680461   -28.482822   -20.214776    128.18515 
    8400    8.2395695   -28.455621   -20.216051    127.74365 
    8500    7.9752827   -28.193991   -20.218709    123.64624 
    8600    8.0138919   -28.227238   -20.213346    124.24482 
    8700    8.1819702   -28.407145   -20.225175    126.85065 
    8800    8.1638794   -28.387986   -20.224107    126.57018 
    8900    8.2393887   -28.459263   -20.219874    127.74085 
    9000    8.1153781   -28.338274   -20.222896    125.81823 
    9100    8.2182997   -28.439886   -20.221587    127.41389 
    9200    7.9138578    -28.13059   -20.216733    122.69392 
    9300    8.3006747   -28.524985    -20.22431    128.69101 
    9400    8.3223354   -28.540801   -20.218465    129.02683 
    9500    8.1390233   -28.360851   -20.221828    126.18482 
    9600      8.00509   -28.221627   -20.216537    124.10836 
    9700    7.9412144   -28.167634    -20.22642    123.11805 
    9800    8.0096439   -28.227661   -20.218017    124.17896 
    9900    8.1029941   -28.329407   -20.226413    125.62623 
   10000    8.3098342   -28.534768   -20.224934    128.83302 
   10100    8.1758253   -28.394037   -20.218211    126.75538 
   10200    8.1019268   -28.324812   -20.222885    125.60969 
   10300    8.1059985   -28.329072   -20.223073    125.67281 
   10400    8.4567731    -28.67946   -20.222687    131.11111 
   10500    7.9034084   -28.124071   -20.220663    122.53192 
   10600    8.3669118    -28.59776   -20.230848    129.71793 
   10700    8.3456224   -28.570007   -20.224385    129.38787 
   10800    8.1109046   -28.330196   -20.219291    125.74887 
   10900    8.4607924   -28.682055   -20.221263    131.17342 
   11000    8.4118881   -28.637932   -20.226044    130.41523 
   11100    8.4480269   -28.670956   -20.222929    130.97551 
   11200    8.3586017   -28.575947   -20.217346    129.58909 
   11300    8.2912332   -28.508811   -20.217578    128.54463 
   11400    8.0496258    -28.26638   -20.216755    124.79883 
   11500     8.241831   -28.453976   -20.212145    127.77872 
   11600    8.2049119   -28.424252    -20.21934    127.20633 
   11700     8.246971   -28.465579   -20.218608    127.85841 
   11800    8.5256858   -28.750342   -20.224656    132.17951 
   11900    8.1146315   -28.336415   -20.221784    125.80666 
   12000    8.1255728   -28.345749   -20.220176    125.97629 
   12100    7.8953572   -28.112335   -20.216978     122.4071 
   12200    8.1496109    -28.36837   -20.218759    126.34897 
   12300    8.0379938   -28.257432   -20.219438    124.61849 
   12400    7.5632615   -27.778985   -20.215724    117.25839 
   12500    8.3688147   -28.587337   -20.218522    129.74743 
   12600    8.2848248    -28.50822   -20.223396    128.44528 
   12700    8.4594903   -28.684061    -20.22457    131.15324 
   12800    8.4785739   -28.701009   -20.222435     131.4491 
   12900    8.2588568   -28.473279   -20.214422    128.04268 
   13000    8.1300182   -28.347009   -20.216991    126.04521 
   13100    8.2823493   -28.502691   -20.220341     128.4069 
   13200    7.8370802    -28.05885    -20.22177    121.50359 
   13300    8.4093469   -28.625965   -20.216618    130.37583 
   13400    8.2009467    -28.41998   -20.219034    127.14486 
   13500    8.3928686   -28.607679    -20.21481    130.12036 
   13600    8.2136206   -28.437732   -20.224111    127.34135 
   13700    7.9494828   -28.173177   -20.223694    123.24624 
   13800    8.3442941   -28.561713   -20.217418    129.36727 
   13900    7.8786168   -28.095498   -20.216881    122.14756 
   14000    8.3495898   -28.570695   -20.221105    129.44937 
   14100    7.9862144   -28.199354   -20.213139    123.81572 
   14200    8.2339354   -28.452303   -20.218367    127.65631 
   14300    8.2459062   -28.468342   -20.222436     127.8419 
   14400     8.040239    -28.25418   -20.213941     124.6533 
   14500    8.4033771   -28.619102   -20.215725    130.28328 
   14600    8.2337382   -28.451711   -20.217973    127.65325 
   14700     8.221557   -28.446541   -20.224984     127.4644 
   14800    8.1195064   -28.338708   -20.219201    125.88223 
   14900    8.0443797    -28.26033    -20.21595    124.71749 
   15000    8.3362816    -28.56813   -20.231848    129.24305 
   15100    8.1236453    -28.34972   -20.226074     125.9464 
   15200    8.4280761   -28.651441   -20.223365     130.6662 
   15300    8.4457852   -28.662335    -20.21655    130.94076 
   15400    8.2692564   -28.486782   -20.217526    128.20391 
   15500    8.0648382   -28.280118    -20.21528    125.03468 
   15600    8.1714326   -28.392356   -20.220923    126.68728 
   15700    8.1518025   -28.377864   -20.226061    126.38294 
   15800    8.1680255   -28.388521   -20.220496    126.63446 
   15900    8.1337178   -28.354231   -20.220513    126.10256 
   16000    8.1128283   -28.335942   -20.223114     125.7787 
   16100    8.2245999    -28.45054    -20.22594    127.51157 
   16200    8.2965331   -28.515395   -20.218862     128.6268 
   16300    7.9494959   -28.172646    -20.22315    123.24645 
   16400    8.4190977   -28.648627    -20.22953      130.527 
   16500    8.1134631   -28.331055   -20.217592    125.78854 
   16600    8.1010332   -28.325314   -20.224281    125.59583 
   16700    8.2259562   -28.446838   -20.220882     127.5326 
   16800     8.143025   -28.359946   -20.216921    126.24686 
   16900    7.7041457   -27.921062   -20.216916    119.44262 
   17000    8.0536566   -28.269825   -20.216169    124.86132 
   17100    8.2898679   -28.514214   -20.224346    128.52346 
   17200    8.0242327   -28.243223    -20.21899    124.40514 
   17300    8.1526539   -28.371581   -20.218927    126.39614 
   17400    8.0381141   -28.255211   -20.217097    124.62035 
   17500    8.1540336   -28.368472   -20.214438    126.41753 
   17600    8.4075448   -28.629499   -20.221955    130.34789 
   17700    8.1082721   -28.327292    -20.21902    125.70806 
   17800    8.2631818   -28.482334   -20.219152    128.10973 
   17900    7.9099959   -28.134157   -20.224161    122.63405 
   18000    8.4710291   -28.690075   -20.219046    131.33213 
   18100    8.1228224   -28.342457   -20.219635    125.93364 
   18200     8.075707   -28.294694   -20.218987    125.20318 
   18300    8.1480123    -28.36318   -20.215167    126.32418 
   18400    7.9509365   -28.172403   -20.221467    123.26878 
   18500     8.018504   -28.239844    -20.22134    124.31633 
   18600    8.3978754   -28.620874   -20.222998    130.19798 
   18700    8.4015278   -28.624367   -20.222839    130.25461 
   18800    8.1842754   -28.408846    -20.22457    126.88639 
   18900    8.1897829    -28.40147   -20.211687    126.97178 
   19000     8.201225   -28.415986   -20.214761    127.14917 
   19100     7.756788   -27.977146   -20.220358    120.25876 
   19200    8.2102669   -28.431672   -20.221405    127.28936 
   19300    7.9195368   -28.138525   -20.218988    122.78197 
   19400    8.3454513   -28.568922    -20.22347    129.38521 
   19500    8.4520979   -28.673045   -20.220947    131.03863 
   19600    8.3547874   -28.582712   -20.227925    129.52996 
   19700    8.2204444   -28.441043   -20.220599    127.44714 
   19800    8.2617799    -28.49173    -20.22995      128.088 
   19900    8.0491813   -28.268642   -20.219461    124.79194 
   20000    7.9798985   -28.200252   -20.220354     123.7178 
   20100     8.392796   -28.615127   -20.222331    130.11923 
   20200     8.301458    -28.52479   -20.223332    128.70315 
   20300     8.256836   -28.475613   -20.218777    128.01135 
   20400    8.2536132    -28.47386   -20.220246    127.96138 
   20500    7.9919262   -28.201071   -20.209145    123.90427 
   20600    8.3329129   -28.549576   -20.216663    129.19082 
   20700    8.0512302   -28.275213   -20.223983     124.8237 
   20800    7.9270352   -28.146791   -20.219756    122.89822 
   20900    8.1868209   -28.398197   -20.211376    126.92586 
   21000    8.0710883   -28.286575   -20.215487    125.13158 
   21100    8.1571998   -28.371361   -20.214161    126.46662 
   21200    8.1151122   -28.344817   -20.229704    125.81411 
   21300    8.4058613   -28.629877   -20.224016    130.32179 
   21400    8.2286336   -28.454489   -20.225855    127.57411 
   21500    8.3736799   -28.602711   -20.229031    129.82286 
   21600    8.1180338   -28.337193    -20.21916     125.8594 
   21700    8.5531712   -28.771706   -20.218535    132.60564 
   21800    8.0316609   -28.253451    -20.22179    124.52031 
   21900    8.2064559   -28.423679   -20.217223    127.23027 
   22000    8.2975919   -28.518403   -20.220811    128.64322 
   22100    8.0785532    -28.30541   -20.226857    125.24731 
   22200    7.9513683   -28.171109   -20.219741    123.27548 
   22300     8.256349   -28.477317   -20.220968     128.0038 
   22400    8.5170237   -28.741198   -20.224174    132.04522 
   22500    8.2821696   -28.502346   -20.220177    128.40411 
   22600     8.320901   -28.544219   -20.223318    129.00459 
   22700    8.3260042   -28.551542   -20.225538    129.08371 
   22800    8.3642598   -28.589577   -20.225318    129.67681 
   22900    8.2277125   -28.447759   -20.220047    127.55983 
   23000    8.2948852   -28.516267   -20.221381    128.60125 
   23100    8.3778864   -28.593508   -20.215622    129.88808 
   23200    7.9018777   -28.120173   -20.218295    122.50819 
   23300    8.3690456   -28.587929   -20.218883    129.75101 
   23400    8.2324227   -28.455169   -20.222746    127.63285 
   23500     8.161595   -28.387837   -20.226242    126.53476 
   23600    8.2122725    -28.42725   -20.214977    127.32045 
   23700    7.8605944    -28.08604   -20.225446    121.86815 
   23800    8.0517933   -28.273921   -20.222128    124.83243 
   23900    7.9972972   -28.213753   -20.216456    123.98754 
   24000    7.8785602   -28.103187   -20.224627    122.14668 
   24100    7.9145923   -28.138777   -20.224184    122.70531 
   24200    8.2293911   -28.451884   -20.222493    127.58585 
   24300    8.2517335   -28.478283    -20.22655    127.93224 
   24400    8.1678418   -28.381438   -20.213596    126.63161 
   24500    8.1794261   -28.398519   -20.219093    126.81121 
   24600    7.9451971   -28.165128   -20.219931     123.1798 
   24700    8.3261738   -28.549691   -20.223518    129.08634 
   24800    8.3432035   -28.565436   -20.222233    129.35036 
   24900    8.4689766    -28.69318   -20.224203    131.30031 
   25000    7.5467291   -27.764908   -20.218179    117.00208 
   25100     8.172553   -28.393286   -20.220733    126.70465 
   25200    8.2335135   -28.451664   -20.218151    127.64976 
   25300    8.4627894    -28.68238    -20.21959    131.20438 
   25400    8.2911011   -28.516982   -20.225881    128.54258 
   25500     8.144773   -28.364123    -20.21935    126.27396 
   25600    8.1846167   -28.411155   -20.226538    126.89168 
   25700    8.1157935   -28.339479   -20.223686    125.82467 
   25800    8.1231209   -28.340655   -20.217534    125.93827 
   25900    8.4860988   -28.707442   -20.221343    131.56577 
   26000    8.2377675   -28.457773   -20.220006    127.71572 
   26100    7.9594968   -28.183763   -20.224266     123.4015 
   26200    8.4324251   -28.655353   -20.222928    130.73363 
   26300    8.3807872    -28.60111   -20.220323    129.93305 
   26400    8.6399357   -28.859334   -20.219399     133.9508 
   26500    8.0513305   -28.275482   -20.224151    124.82526 
   26600    8.2820862   -28.503693   -20.221607    128.40282 
   26700    8.3244311   -28.542083   -20.217652    129.05932 
   26800    8.4217647   -28.647289   -20.225524    130.56835 
   26900     8.235253   -28.456613    -20.22136    127.67673 
   27000    8.3953023   -28.615141   -20.219839    130.15809 
   27100    8.5851173   -28.809319   -20.224202    133.10092 
   27200    8.2013864   -28.424384   -20.222998    127.15168 
   27300    8.2743148   -28.495701   -20.221386    128.28234 
   27400    8.0850795   -28.309298   -20.224218    125.34849 
   27500    8.0964142    -28.31481   -20.218395    125.52422 
   27600    8.2851504   -28.508512   -20.223362    128.45033 
   27700    8.0962935    -28.31996   -20.223666    125.52235 
   27800    7.9963209   -28.218222   -20.221901    123.97241 
   27900    8.1253783   -28.347647   -20.222269    125.97327 
   28000    8.0004658   -28.216285    -20.21582    124.03667 
   28100    8.3070488    -28.52886   -20.221811    128.78983 
   28200     8.205088   -28.425277   -20.220189    127.20906 
   28300    8.0962845   -28.319538   -20.223253    125.52221 
   28400    7.9670018   -28.185675   -20.218673    123.51785 
   28500    8.0513047   -28.272111   -20.220806    124.82486 
   28600    8.3815006   -28.610268   -20.228767    129.94411 
   28700    8.0238667   -28.254527   -20.230661    124.39947 
   28800    8.1947228   -28.415529   -20.220806    127.04837 
   28900    8.3244346   -28.547649   -20.223214    129.05938 
   29000    8.4275475   -28.647255   -20.219707    130.65801 
   29100    8.1793285   -28.398323   -20.218994     126.8097 
   29200    8.0628462   -28.283371   -20.220524    125.00379 
   29300     8.369332   -28.591566   -20.222234    129.75545 
   29400     8.144326   -28.364714   -20.220388    126.26703 
   29500    8.1310595   -28.353044   -20.221985    126.06135 
   29600    8.4518471   -28.678505   -20.226658    131.03474 
   29700     8.115141   -28.335797   -20.220656    125.81455 
   29800    8.3232041   -28.542546   -20.219342     129.0403 
   29900    8.1310591   -28.351812   -20.220753    126.06134 
   30000    8.3990567   -28.616717    -20.21766    130.21629 
   30100    8.2324013   -28.443909   -20.211508    127.63252 
   30200    8.2943133    -28.51659   -20.222277    128.59239 
   30300    8.1572243   -28.372758   -20.215533      126.467 
   30400    8.3276384    -28.53817   -20.210531    129.10905 
   30500    8.0094437   -28.230211   -20.220767    124.17586 
   30600    8.0346471   -28.253386   -20.218739     124.5666 
   30700    8.4004629   -28.613413    -20.21295    130.23809 
   30800    8.0518666   -28.274026    -20.22216    124.83357 
   30900    8.3808787   -28.596801   -20.215922    129.93447 
   31000    8.0912301   -28.312629   -20.221399    125.44385 
   31100    8.0512851   -28.269443   -20.218158    124.82455 
   31200    8.2670831   -28.491285   -20.224202    128.17022 
   31300    8.4001855   -28.630022   -20.229837    130.23379 
   31400    8.4137622   -28.635708   -20.221946    130.44428 
   31500    8.0870847   -28.303711   -20.216626    125.37958 
   31600    8.1228566   -28.348674   -20.225817    125.93418 
   31700    8.2525398   -28.477391   -20.224851    127.94474 
   31800    8.0425607   -28.268595   -20.226034    124.68929 
   31900    8.3234739   -28.538156   -20.214682    129.04448 
   32000    8.1780195   -28.402539    -20.22452     126.7894 
   32100    8.1083896   -28.337731   -20.229342    125.70988 
   32200    8.1485801   -28.369984   -20.221404    126.33298 
   32300    8.3950563   -28.617612   -20.222556    130.15427 
   32400    8.4595186   -28.676593   -20.217075    131.15368 
   32500    8.2884101   -28.512517   -20.224107    128.50086 
   32600    8.1007759   -28.323909   -20.223133    125.59184 
   32700    8.0766135   -28.298367   -20.221753    125.21724 
   32800    8.2289891   -28.444544   -20.215555    127.57962 
   32900     8.185378   -28.403731   -20.218353    126.90349 
   33000    8.1182895   -28.346538   -20.228249    125.86337 
   33100    8.4772098   -28.702031   -20.224822    131.42795 
   33200    8.3620776   -28.588435   -20.226357    129.64298 
   33300    8.6085407   -28.827531    -20.21899    133.46407 
   33400    7.7321691   -27.941934   -20.209765    119.87708 
   33500    8.2504709   -28.469077   -20.218606    127.91267 
   33600    8.4932952   -28.715093   -20.221798    131.67734 
   33700    8.2059422   -28.419936   -20.213994    127.22231 
   33800    7.8097815   -28.031277   -20.221495    121.08036 
   33900    8.4501759   -28.675834   -20.225658    131.00883 
   34000    8.3900395   -28.613653   -20.223614    130.07649 
   34100    8.1871735    -28.41978   -20.232607    126.93132 
   34200    8.0735277   -28.294174   -20.220647     125.1694 
   34300    8.0854619   -28.319382    -20.23392    125.35442 
   34400    7.9498217   -28.166477   -20.216656     123.2515 
   34500    8.1838175   -28.399471   -20.215654    126.87929 
   34600    8.1190644   -28.334859   -20.215795    125.87538 
   34700    8.0789143   -28.295339   -20.216425    125.25291 
   34800     8.242217   -28.461271   -20.219054     127.7847 
   34900     8.283444   -28.503799   -20.220355    128.42387 
   35000    7.8720942   -28.086699   -20.214605    122.04644 
   35100    7.9651419   -28.178346   -20.213204    123.48902 
   35200    8.1145745   -28.338456   -20.223882    125.80577 
   35300    8.0295606   -28.259029   -20.229469    124.48774 
   35400     8.300943   -28.526318   -20.225375    128.69517 
   35500     8.054548   -28.282023   -20.227475    124.87514 
   35600    8.1597853   -28.380656   -20.220871    126.50671 
   35700    8.0725446   -28.293626   -20.221081    125.15415 
   35800    8.1767296   -28.401072   -20.224342    126.76941 
   35900    8.5015662   -28.725864   -20.224298    131.80557 
   36000    8.2661775   -28.483251   -20.217073    128.15618 
   36100    8.4398485   -28.662396   -20.222547    130.84872 
   36200    8.2167004   -28.433322   -20.216621     127.3891 
   36300    8.4499632   -28.665694    -20.21573    131.00553 
   36400    8.1635926   -28.381505   -20.217912    126.56573 
   36500    8.2558939   -28.482573   -20.226679    127.99674 
   36600     7.673235   -27.893522   -20.220287    118.96339 
   36700    8.1317794   -28.351023   -20.219244    126.07251 
   36800    8.2008828   -28.419265   -20.218382    127.14387 
   36900    8.0420442   -28.260687   -20.218643    124.68129 
   37000    8.1715721   -28.396064   -20.224491    126.68945 
   37100    8.0632731   -28.286355   -20.223082    125.01041 
   37200    8.4633977   -28.686209   -20.222811    131.21382 
   37300    8.2506688    -28.47093   -20.220261    127.91573 
   37400    8.5803504   -28.809211   -20.228861    133.02701 
   37500    8.7037126   -28.933372   -20.229659    134.93958 
   37600    8.0140372   -28.237225   -20.223188    124.24707 
   37700    8.3127293    -28.52975    -20.21702     128.8779 
   37800    8.3557037   -28.575785   -20.220081    129.54416 
   37900    8.5004605   -28.717248   -20.216788    131.78842 
   38000    8.1232077   -28.346688   -20.223481    125.93962 
   38100    7.7985007   -28.012673   -20.214172    120.90547 
   38200    7.9723648   -28.186634   -20.214269      123.601 
   38300    8.1184395   -28.338634   -20.220195    125.86569 
   38400    8.5195435   -28.739627   -20.220084    132.08428 
   38500    8.3515629   -28.569481   -20.217918    129.47996 
   38600    8.0609331   -28.279891   -20.218958    124.97413 
   38700    8.2651242   -28.487606   -20.222481    128.13985 
   38800    8.3364016   -28.552078   -20.215676    129.24491 
   38900    8.2599816   -28.475959   -20.215978    128.06012 
   39000    8.5716025   -28.791317   -20.219714    132.89139 
   39100    8.3937861   -28.620175   -20.226389    130.13458 
   39200    8.2944999   -28.509121   -20.214621    128.59528 
   39300    7.9760162   -28.192223   -20.216207    123.65761 
   39400    7.9046537     -28.1241   -20.219446    122.55123 
   39500    8.0811321   -28.299839   -20.218707    125.28729 
   39600    8.2190801   -28.447067   -20.227987    127.42599 
   39700    8.2392383   -28.458803   -20.219564    127.73852 
   39800    8.3332387   -28.558349    -20.22511    129.19587 
   39900    8.4903283   -28.717109   -20.226781    131.63134 
   40000    8.2620955   -28.482049   -20.219954    128.09289 
   40100    7.9779928    -28.19946   -20.221467    123.68825 
   40200    8.0151155   -28.231005   -20.215889    124.26379 
   40300    8.4297965   -28.656195   -20.226399    130.69287 
   40400    8.2248077    -28.44557   -20.220762    127.51479 
   40500    7.9017343   -28.120441   -20.218707    122.50597 
   40600    7.6227956     -27.8401   -20.217305    118.18139 
   40700    8.4275265   -28.647685   -20.220159    130.65768 
   40800    7.9273706   -28.145254   -20.217884    122.90342 
   40900     8.143687   -28.362457    -20.21877    126.25712 
   41000    8.6794165   -28.894775   -20.215358     134.5629 
   41100    8.0671784    -28.28075   -20.213571    125.07096 
   41200    8.1418209   -28.356745   -20.214924    126.22819 
   41300    8.4161056   -28.639136    -20.22303    130.48061 
   41400    8.4656452   -28.688635   -20.222989    131.24866 
   41500    8.1610472   -28.379189   -20.218142    126.52627 
   41600    8.1679343   -28.385101   -20.217167    126.63305 
   41700    7.9435095   -28.159748   -20.216239    123.15364 
   41800    8.2599104   -28.477871    -20.21796    128.05901 
   41900    8.1480579   -28.367871   -20.219813    126.32489 
   42000    8.1604543   -28.388896   -20.228442    126.51708 
   42100    8.0002146   -28.217811   -20.217596    124.03277 
   42200    7.9075007   -28.119804   -20.212303    122.59537 
   42300    8.0763363   -28.300488   -20.224151    125.21294 
   42400    7.8801007   -28.096297   -20.216196    122.17057 
   42500    8.0164536   -28.233246   -20.216792    124.28454 
   42600    8.2833168   -28.519008   -20.235692     128.4219 
   42700    7.8873876   -28.107255   -20.219867    122.28354 
   42800    8.0433047   -28.266897   -20.223592    124.70083 
   42900    8.2068062   -28.427396   -20.220589     127.2357 
   43000    8.0325326   -28.253806   -20.221274    124.53382 
   43100    8.5860869    -28.80803   -20.221943    133.11595 
   43200    8.2336257   -28.457138   -20.223512     127.6515 
   43300     8.335836   -28.563634   -20.227798    129.23614 
   43400    8.1898664   -28.415017   -20.225151    126.97307 
   43500    8.0202852   -28.240109   -20.219824    124.34394 
   43600    8.3930656   -28.614785    -20.22172    130.12341 
   43700    7.9535437   -28.165839   -20.212295     123.3092 
   43800    8.4887528   -28.709443   -20.220691    131.60691 
   43900    8.4795867   -28.706404   -20.226817    131.46481 
   44000    7.9836432   -28.198311   -20.214668    123.77585 
   44100    8.2006178   -28.416333   -20.215716    127.13976 
   44200    8.1708849   -28.396896   -20.226011    126.67879 
   44300    8.1556284   -28.378297   -20.222669    126.44226 
   44400    8.3167547    -28.54706   -20.230306    128.94031 
   44500     8.405466   -28.628235   -20.222769    130.31566 
   44600    8.1334631   -28.353186   -20.219723    126.09861 
   44700    8.0760646   -28.295967   -20.219903    125.20873 
   44800    8.0592924   -28.281544   -20.222251     124.9487 
   44900      7.97488   -28.197431   -20.222551    123.63999 
   45000    8.2130493   -28.429024   -20.215975    127.33249 
   45100    8.0463264   -28.257804   -20.211478    124.74768 
   45200    7.9039034   -28.128463   -20.224559     122.5396 
   45300    7.9280928   -28.146017   -20.217924    122.91462 
   45400    8.1470678   -28.372642   -20.225574    126.30954 
   45500      8.13674   -28.359857   -20.223117    126.14942 
   45600    8.2786346   -28.497491   -20.218856    128.34931 
   45700    7.9284185   -28.146353   -20.217934    122.91967 
   45800     8.172634   -28.394841   -20.222208    126.70591 
   45900    7.9986195   -28.218224   -20.219604    124.00804 
   46000    7.7048356   -27.927065    -20.22223    119.45331 
   46100    8.4347783   -28.648631   -20.213853    130.77011 
   46200    8.0699985   -28.285338    -20.21534    125.11468 
   46300     7.908772   -28.129782    -20.22101    122.61508 
   46400    8.2383533   -28.456755   -20.218401     127.7248 
   46500    8.2609939   -28.479451   -20.218457    128.07581 
   46600    8.4558508   -28.678886   -20.223035    131.09681 
   46700    8.4928652   -28.709915    -20.21705    131.67067 
   46800    8.0518968   -28.277906   -20.226009    124.83404 
   46900    8.3166515   -28.535938   -20.219286    128.93871 
   47000    8.3764666   -28.597095   -20.220628    129.86606 
   47100    8.2300073   -28.452923   -20.222916    127.59541 
   47200    8.4900997   -28.711106   -20.221006    131.62779 
   47300    8.1293516   -28.349724   -20.220373    126.03487 
   47400    8.2158784   -28.432926   -20.217048    127.37636 
   47500    7.7857873   -28.003693   -20.217906    120.70836 
   47600    8.5054814   -28.719189   -20.213708    131.86627 
   47700    8.0878586   -28.298421   -20.210562    125.39158 
   47800     8.111986   -28.325631   -20.213645    125.76564 
   47900     8.352213   -28.564575   -20.212362    129.49004 
   48000    8.4149916   -28.628577   -20.213586    130.46334 
   48100    8.0714475   -28.296412   -20.224965    125.13714 
   48200    7.7833649   -28.011313   -20.227948     120.6708 
   48300    8.2099379   -28.429085   -20.219147    127.28426 
   48400    8.2968073    -28.51265   -20.215842    128.63105 
   48500    8.2361317   -28.454859   -20.218728    127.69036 
   48600    8.3899494   -28.611253   -20.221304     130.0751 
   48700    8.1890205   -28.412154   -20.223134    126.95996 
   48800    8.2967676   -28.513323   -20.216555    128.63044 
   48900    7.9411284    -28.16348   -20.222352    123.11672 
   49000    7.9694583   -28.186083   -20.216625    123.55594 
   49100    8.2931711   -28.504351    -20.21118    128.57468 
   49200    8.0324178   -28.245088   -20.212671    124.53204 
   49300    8.2535897   -28.476753   -20.223163    127.96102 
   49400     8.332663   -28.551224   -20.218561    129.18695 
   49500    7.9194826   -28.134275   -20.214792    122.78113 
   49600      8.07927   -28.297901   -20.218631    125.25842 
   49700    8.2256014   -28.447582    -20.22198     127.5271 
   49800    8.2474201   -28.469327   -20.221906    127.86537 
   49900     7.874123   -28.093743    -20.21962    122.07789 
   50000    8.0812797   -28.301615   -20.220335    125.28958 
Loop time of 59.8042 on 1 procs for 50000 steps with 500 atoms

Performance: 1444.714 ns/day, 0.017 hours/ns, 836.061 timesteps/s
99.7% CPU use with 1 MPI tasks x no OpenMP threads

MPI task timing breakdown:
Section |  min time  |  avg time  |  max time  |%varavg| %total
---------------------------------------------------------------
Pair    | 28.261     | 28.261     | 28.261     |   0.0 | 47.26
Neigh   | 28.374     | 28.374     | 28.374     |   0.0 | 47.45
Comm    | 1.9104     | 1.9104     | 1.9104     |   0.0 |  3.19
Output  | 0.20309    | 0.20309    | 0.20309    |   0.0 |  0.34
Modify  | 0.5305     | 0.5305     | 0.5305     |   0.0 |  0.89
Other   |            | 0.5246     |            |       |  0.88

Nlocal:    500 ave 500 max 500 min
Histogram: 1 0 0 0 0 0 0 0 0 0
Nghost:    2087 ave 2087 max 2087 min
Histogram: 1 0 0 0 0 0 0 0 0 0
Neighs:    26118 ave 26118 max 26118 min
Histogram: 1 0 0 0 0 0 0 0 0 0

Total # of neighbors = 26118
Ave neighs/atom = 52.236
Neighbor list builds = 21644
Dangerous builds = 0
Total wall time: 0:01:00
