ITEM: TIMESTEP
0
ITEM: NUMBER OF ATOMS
511
ITEM: BOX BOUNDS pp pp pp
0.0000000000000000e+00 2.1719999300000001e+01
0.0000000000000000e+00 2.1719999300000001e+01
0.0000000000000000e+00 2.1719999300000001e+01
ITEM: ATOMS id type x y z 
1 1 0 0 0 
2 1 0 2.715 2.715 
3 1 2.715 0 2.715 
4 1 2.715 2.715 0 
5 1 1.3575 1.3575 1.3575 
6 1 1.3575 4.0725 4.0725 
7 1 4.0725 1.3575 4.0725 
8 1 4.0725 4.0725 1.3575 
9 1 5.43 0 0 
10 1 5.43 2.715 2.715 
11 1 8.145 0 2.715 
12 1 8.145 2.715 0 
13 1 6.7875 1.3575 1.3575 
14 1 6.7875 4.0725 4.0725 
15 1 9.5025 1.3575 4.0725 
16 1 9.5025 4.0725 1.3575 
17 1 10.86 0 0 
18 1 10.86 2.715 2.715 
19 1 13.575 0 2.715 
20 1 13.575 2.715 0 
21 1 12.2175 1.3575 1.3575 
22 1 12.2175 4.0725 4.0725 
23 1 14.9325 1.3575 4.0725 
24 1 14.9325 4.0725 1.3575 
25 1 16.29 0 0 
26 1 16.29 2.715 2.715 
27 1 19.005 0 2.715 
28 1 19.005 2.715 0 
29 1 17.6475 1.3575 1.3575 
30 1 17.6475 4.0725 4.0725 
31 1 20.3625 1.3575 4.0725 
32 1 20.3625 4.0725 1.3575 
33 1 0 5.43 0 
34 1 0 8.145 2.715 
35 1 2.715 5.43 2.715 
36 1 2.715 8.145 0 
37 1 1.3575 6.7875 1.3575 
38 1 1.3575 9.5025 4.0725 
39 1 4.0725 6.7875 4.0725 
40 1 4.0725 9.5025 1.3575 
41 1 5.43 5.43 0 
42 1 5.43 8.145 2.715 
43 1 8.145 5.43 2.715 
44 1 8.145 8.145 0 
45 1 6.7875 6.7875 1.3575 
46 1 6.7875 9.5025 4.0725 
47 1 9.5025 6.7875 4.0725 
48 1 9.5025 9.5025 1.3575 
49 1 10.86 5.43 0 
50 1 10.86 8.145 2.715 
51 1 13.575 5.43 2.715 
52 1 13.575 8.145 0 
53 1 12.2175 6.7875 1.3575 
54 1 12.2175 9.5025 4.0725 
55 1 14.9325 6.7875 4.0725 
56 1 14.9325 9.5025 1.3575 
57 1 16.29 5.43 0 
58 1 16.29 8.145 2.715 
59 1 19.005 5.43 2.715 
60 1 19.005 8.145 0 
61 1 17.6475 6.7875 1.3575 
62 1 17.6475 9.5025 4.0725 
63 1 20.3625 6.7875 4.0725 
64 1 20.3625 9.5025 1.3575 
65 1 0 10.86 0 
66 1 0 13.575 2.715 
67 1 2.715 10.86 2.715 
68 1 2.715 13.575 0 
69 1 1.3575 12.2175 1.3575 
70 1 1.3575 14.9325 4.0725 
71 1 4.0725 12.2175 4.0725 
72 1 4.0725 14.9325 1.3575 
73 1 5.43 10.86 0 
74 1 5.43 13.575 2.715 
75 1 8.145 10.86 2.715 
76 1 8.145 13.575 0 
77 1 6.7875 12.2175 1.3575 
78 1 6.7875 14.9325 4.0725 
79 1 9.5025 12.2175 4.0725 
80 1 9.5025 14.9325 1.3575 
81 1 10.86 10.86 0 
82 1 10.86 13.575 2.715 
83 1 13.575 10.86 2.715 
84 1 13.575 13.575 0 
85 1 12.2175 12.2175 1.3575 
86 1 12.2175 14.9325 4.0725 
87 1 14.9325 12.2175 4.0725 
88 1 14.9325 14.9325 1.3575 
89 1 16.29 10.86 0 
90 1 16.29 13.575 2.715 
91 1 19.005 10.86 2.715 
92 1 19.005 13.575 0 
93 1 17.6475 12.2175 1.3575 
94 1 17.6475 14.9325 4.0725 
95 1 20.3625 12.2175 4.0725 
96 1 20.3625 14.9325 1.3575 
97 1 0 16.29 0 
98 1 0 19.005 2.715 
99 1 2.715 16.29 2.715 
100 1 2.715 19.005 0 
101 1 1.3575 17.6475 1.3575 
102 1 1.3575 20.3625 4.0725 
103 1 4.0725 17.6475 4.0725 
104 1 4.0725 20.3625 1.3575 
105 1 5.43 16.29 0 
106 1 5.43 19.005 2.715 
107 1 8.145 16.29 2.715 
108 1 8.145 19.005 0 
109 1 6.7875 17.6475 1.3575 
110 1 6.7875 20.3625 4.0725 
111 1 9.5025 17.6475 4.0725 
112 1 9.5025 20.3625 1.3575 
113 1 10.86 16.29 0 
114 1 10.86 19.005 2.715 
115 1 13.575 16.29 2.715 
116 1 13.575 19.005 0 
117 1 12.2175 17.6475 1.3575 
118 1 12.2175 20.3625 4.0725 
119 1 14.9325 17.6475 4.0725 
120 1 14.9325 20.3625 1.3575 
121 1 16.29 16.29 0 
122 1 16.29 19.005 2.715 
123 1 19.005 16.29 2.715 
124 1 19.005 19.005 0 
125 1 17.6475 17.6475 1.3575 
126 1 17.6475 20.3625 4.0725 
127 1 20.3625 17.6475 4.0725 
128 1 20.3625 20.3625 1.3575 
129 1 0 0 5.43 
130 1 0 2.715 8.145 
131 1 2.715 0 8.145 
132 1 2.715 2.715 5.43 
133 1 1.3575 1.3575 6.7875 
134 1 1.3575 4.0725 9.5025 
135 1 4.0725 1.3575 9.5025 
136 1 4.0725 4.0725 6.7875 
137 1 5.43 0 5.43 
138 1 5.43 2.715 8.145 
139 1 8.145 0 8.145 
140 1 8.145 2.715 5.43 
141 1 6.7875 1.3575 6.7875 
142 1 6.7875 4.0725 9.5025 
143 1 9.5025 1.3575 9.5025 
144 1 9.5025 4.0725 6.7875 
145 1 10.86 0 5.43 
146 1 10.86 2.715 8.145 
147 1 13.575 0 8.145 
148 1 13.575 2.715 5.43 
149 1 12.2175 1.3575 6.7875 
150 1 12.2175 4.0725 9.5025 
151 1 14.9325 1.3575 9.5025 
152 1 14.9325 4.0725 6.7875 
153 1 16.29 0 5.43 
154 1 16.29 2.715 8.145 
155 1 19.005 0 8.145 
156 1 19.005 2.715 5.43 
157 1 17.6475 1.3575 6.7875 
158 1 17.6475 4.0725 9.5025 
159 1 20.3625 1.3575 9.5025 
160 1 20.3625 4.0725 6.7875 
161 1 0 5.43 5.43 
162 1 0 8.145 8.145 
163 1 2.715 5.43 8.145 
164 1 2.715 8.145 5.43 
165 1 1.3575 6.7875 6.7875 
166 1 1.3575 9.5025 9.5025 
167 1 4.0725 6.7875 9.5025 
168 1 4.0725 9.5025 6.7875 
169 1 5.43 5.43 5.43 
170 1 5.43 8.145 8.145 
171 1 8.145 5.43 8.145 
172 1 8.145 8.145 5.43 
173 1 6.7875 6.7875 6.7875 
174 1 6.7875 9.5025 9.5025 
175 1 9.5025 6.7875 9.5025 
176 1 9.5025 9.5025 6.7875 
177 1 10.86 5.43 5.43 
178 1 10.86 8.145 8.145 
179 1 13.575 5.43 8.145 
180 1 13.575 8.145 5.43 
181 1 12.2175 6.7875 6.7875 
182 1 12.2175 9.5025 9.5025 
183 1 14.9325 6.7875 9.5025 
184 1 14.9325 9.5025 6.7875 
185 1 16.29 5.43 5.43 
186 1 16.29 8.145 8.145 
187 1 19.005 5.43 8.145 
188 1 19.005 8.145 5.43 
189 1 17.6475 6.7875 6.7875 
190 1 17.6475 9.5025 9.5025 
191 1 20.3625 6.7875 9.5025 
192 1 20.3625 9.5025 6.7875 
193 1 0 10.86 5.43 
194 1 0 13.575 8.145 
195 1 2.715 10.86 8.145 
196 1 2.715 13.575 5.43 
197 1 1.3575 12.2175 6.7875 
198 1 1.3575 14.9325 9.5025 
199 1 4.0725 12.2175 9.5025 
200 1 4.0725 14.9325 6.7875 
201 1 5.43 10.86 5.43 
202 1 5.43 13.575 8.145 
203 1 8.145 10.86 8.145 
204 1 8.145 13.575 5.43 
205 1 6.7875 12.2175 6.7875 
206 1 6.7875 14.9325 9.5025 
207 1 9.5025 12.2175 9.5025 
208 1 9.5025 14.9325 6.7875 
209 1 10.86 10.86 5.43 
210 1 10.86 13.575 8.145 
211 1 13.575 10.86 8.145 
212 1 13.575 13.575 5.43 
213 1 12.2175 12.2175 6.7875 
214 1 12.2175 14.9325 9.5025 
215 1 14.9325 12.2175 9.5025 
216 1 14.9325 14.9325 6.7875 
217 1 16.29 10.86 5.43 
218 1 16.29 13.575 8.145 
219 1 19.005 10.86 8.145 
220 1 19.005 13.575 5.43 
221 1 17.6475 12.2175 6.7875 
222 1 17.6475 14.9325 9.5025 
223 1 20.3625 12.2175 9.5025 
224 1 20.3625 14.9325 6.7875 
225 1 0 16.29 5.43 
226 1 0 19.005 8.145 
227 1 2.715 16.29 8.145 
228 1 2.715 19.005 5.43 
229 1 1.3575 17.6475 6.7875 
230 1 1.3575 20.3625 9.5025 
231 1 4.0725 17.6475 9.5025 
232 1 4.0725 20.3625 6.7875 
233 1 5.43 16.29 5.43 
234 1 5.43 19.005 8.145 
235 1 8.145 16.29 8.145 
236 1 8.145 19.005 5.43 
237 1 6.7875 17.6475 6.7875 
238 1 6.7875 20.3625 9.5025 
239 1 9.5025 17.6475 9.5025 
240 1 9.5025 20.3625 6.7875 
241 1 10.86 16.29 5.43 
242 1 10.86 19.005 8.145 
243 1 13.575 16.29 8.145 
244 1 13.575 19.005 5.43 
245 1 12.2175 17.6475 6.7875 
246 1 12.2175 20.3625 9.5025 
247 1 14.9325 17.6475 9.5025 
248 1 14.9325 20.3625 6.7875 
249 1 16.29 16.29 5.43 
250 1 16.29 19.005 8.145 
251 1 19.005 16.29 8.145 
252 1 19.005 19.005 5.43 
253 1 17.6475 17.6475 6.7875 
254 1 17.6475 20.3625 9.5025 
255 1 20.3625 17.6475 9.5025 
256 1 20.3625 20.3625 6.7875 
257 1 0 0 10.86 
258 1 0 2.715 13.575 
259 1 2.715 0 13.575 
260 1 2.715 2.715 10.86 
261 1 1.3575 1.3575 12.2175 
262 1 1.3575 4.0725 14.9325 
263 1 4.0725 1.3575 14.9325 
264 1 4.0725 4.0725 12.2175 
265 1 5.43 0 10.86 
266 1 5.43 2.715 13.575 
267 1 8.145 0 13.575 
268 1 8.145 2.715 10.86 
269 1 6.7875 1.3575 12.2175 
270 1 6.7875 4.0725 14.9325 
271 1 9.5025 1.3575 14.9325 
272 1 9.5025 4.0725 12.2175 
273 1 10.86 0 10.86 
274 1 10.86 2.715 13.575 
275 1 13.575 0 13.575 
276 1 13.575 2.715 10.86 
277 1 12.2175 1.3575 12.2175 
278 1 12.2175 4.0725 14.9325 
279 1 14.9325 1.3575 14.9325 
280 1 14.9325 4.0725 12.2175 
281 1 16.29 0 10.86 
282 1 16.29 2.715 13.575 
283 1 19.005 0 13.575 
284 1 19.005 2.715 10.86 
285 1 17.6475 1.3575 12.2175 
286 1 17.6475 4.0725 14.9325 
287 1 20.3625 1.3575 14.9325 
288 1 20.3625 4.0725 12.2175 
289 1 0 5.43 10.86 
290 1 0 8.145 13.575 
291 1 2.715 5.43 13.575 
292 1 2.715 8.145 10.86 
293 1 1.3575 6.7875 12.2175 
294 1 1.3575 9.5025 14.9325 
295 1 4.0725 6.7875 14.9325 
296 1 4.0725 9.5025 12.2175 
297 1 5.43 5.43 10.86 
298 1 5.43 8.145 13.575 
299 1 8.145 5.43 13.575 
300 1 8.145 8.145 10.86 
301 1 6.7875 6.7875 12.2175 
302 1 6.7875 9.5025 14.9325 
303 1 9.5025 6.7875 14.9325 
304 1 9.5025 9.5025 12.2175 
305 1 10.86 5.43 10.86 
306 1 10.86 8.145 13.575 
307 1 13.575 5.43 13.575 
308 1 13.575 8.145 10.86 
309 1 12.2175 6.7875 12.2175 
310 1 12.2175 9.5025 14.9325 
311 1 14.9325 6.7875 14.9325 
312 1 14.9325 9.5025 12.2175 
313 1 16.29 5.43 10.86 
314 1 16.29 8.145 13.575 
315 1 19.005 5.43 13.575 
316 1 19.005 8.145 10.86 
317 1 17.6475 6.7875 12.2175 
318 1 17.6475 9.5025 14.9325 
319 1 20.3625 6.7875 14.9325 
320 1 20.3625 9.5025 12.2175 
321 1 0 10.86 10.86 
322 1 0 13.575 13.575 
323 1 2.715 10.86 13.575 
324 1 2.715 13.575 10.86 
325 1 1.3575 12.2175 12.2175 
326 1 1.3575 14.9325 14.9325 
327 1 4.0725 12.2175 14.9325 
328 1 4.0725 14.9325 12.2175 
329 1 5.43 10.86 10.86 
330 1 5.43 13.575 13.575 
331 1 8.145 10.86 13.575 
332 1 8.145 13.575 10.86 
333 1 6.7875 12.2175 12.2175 
334 1 6.7875 14.9325 14.9325 
335 1 9.5025 12.2175 14.9325 
336 1 9.5025 14.9325 12.2175 
337 1 10.86 10.86 10.86 
338 1 10.86 13.575 13.575 
339 1 13.575 10.86 13.575 
340 1 13.575 13.575 10.86 
341 1 12.2175 12.2175 12.2175 
342 1 12.2175 14.9325 14.9325 
343 1 14.9325 12.2175 14.9325 
344 1 14.9325 14.9325 12.2175 
345 1 16.29 10.86 10.86 
346 1 16.29 13.575 13.575 
347 1 19.005 10.86 13.575 
348 1 19.005 13.575 10.86 
349 1 17.6475 12.2175 12.2175 
350 1 17.6475 14.9325 14.9325 
351 1 20.3625 12.2175 14.9325 
352 1 20.3625 14.9325 12.2175 
353 1 0 16.29 10.86 
354 1 0 19.005 13.575 
355 1 2.715 16.29 13.575 
356 1 2.715 19.005 10.86 
357 1 1.3575 17.6475 12.2175 
358 1 1.3575 20.3625 14.9325 
359 1 4.0725 17.6475 14.9325 
360 1 4.0725 20.3625 12.2175 
361 1 5.43 16.29 10.86 
362 1 5.43 19.005 13.575 
363 1 8.145 16.29 13.575 
364 1 8.145 19.005 10.86 
365 1 6.7875 17.6475 12.2175 
366 1 6.7875 20.3625 14.9325 
367 1 9.5025 17.6475 14.9325 
368 1 9.5025 20.3625 12.2175 
369 1 10.86 16.29 10.86 
370 1 10.86 19.005 13.575 
371 1 13.575 16.29 13.575 
372 1 13.575 19.005 10.86 
373 1 12.2175 17.6475 12.2175 
374 1 12.2175 20.3625 14.9325 
375 1 14.9325 17.6475 14.9325 
376 1 14.9325 20.3625 12.2175 
377 1 16.29 16.29 10.86 
378 1 16.29 19.005 13.575 
379 1 19.005 16.29 13.575 
380 1 19.005 19.005 10.86 
381 1 17.6475 17.6475 12.2175 
382 1 17.6475 20.3625 14.9325 
383 1 20.3625 17.6475 14.9325 
384 1 20.3625 20.3625 12.2175 
385 1 0 0 16.29 
386 1 0 2.715 19.005 
387 1 2.715 0 19.005 
388 1 2.715 2.715 16.29 
389 1 1.3575 1.3575 17.6475 
390 1 1.3575 4.0725 20.3625 
391 1 4.0725 1.3575 20.3625 
392 1 4.0725 4.0725 17.6475 
393 1 5.43 0 16.29 
394 1 5.43 2.715 19.005 
395 1 8.145 0 19.005 
396 1 8.145 2.715 16.29 
397 1 6.7875 1.3575 17.6475 
398 1 6.7875 4.0725 20.3625 
399 1 9.5025 1.3575 20.3625 
400 1 9.5025 4.0725 17.6475 
401 1 10.86 0 16.29 
402 1 10.86 2.715 19.005 
403 1 13.575 0 19.005 
404 1 13.575 2.715 16.29 
405 1 12.2175 1.3575 17.6475 
406 1 12.2175 4.0725 20.3625 
407 1 14.9325 1.3575 20.3625 
408 1 14.9325 4.0725 17.6475 
409 1 16.29 0 16.29 
410 1 16.29 2.715 19.005 
411 1 19.005 0 19.005 
412 1 19.005 2.715 16.29 
413 1 17.6475 1.3575 17.6475 
414 1 17.6475 4.0725 20.3625 
415 1 20.3625 1.3575 20.3625 
416 1 20.3625 4.0725 17.6475 
417 1 0 5.43 16.29 
418 1 0 8.145 19.005 
419 1 2.715 5.43 19.005 
420 1 2.715 8.145 16.29 
421 1 1.3575 6.7875 17.6475 
422 1 1.3575 9.5025 20.3625 
423 1 4.0725 6.7875 20.3625 
424 1 4.0725 9.5025 17.6475 
425 1 5.43 5.43 16.29 
426 1 5.43 8.145 19.005 
427 1 8.145 5.43 19.005 
428 1 8.145 8.145 16.29 
429 1 6.7875 6.7875 17.6475 
430 1 6.7875 9.5025 20.3625 
431 1 9.5025 6.7875 20.3625 
432 1 9.5025 9.5025 17.6475 
433 1 10.86 5.43 16.29 
434 1 10.86 8.145 19.005 
435 1 13.575 5.43 19.005 
436 1 13.575 8.145 16.29 
437 1 12.2175 6.7875 17.6475 
438 1 12.2175 9.5025 20.3625 
439 1 14.9325 6.7875 20.3625 
440 1 14.9325 9.5025 17.6475 
441 1 16.29 5.43 16.29 
442 1 16.29 8.145 19.005 
443 1 19.005 5.43 19.005 
444 1 19.005 8.145 16.29 
445 1 17.6475 6.7875 17.6475 
446 1 17.6475 9.5025 20.3625 
447 1 20.3625 6.7875 20.3625 
448 1 20.3625 9.5025 17.6475 
449 1 0 10.86 16.29 
450 1 0 13.575 19.005 
451 1 2.715 10.86 19.005 
452 1 2.715 13.575 16.29 
453 1 1.3575 12.2175 17.6475 
454 1 1.3575 14.9325 20.3625 
455 1 4.0725 12.2175 20.3625 
456 1 4.0725 14.9325 17.6475 
457 1 5.43 10.86 16.29 
458 1 5.43 13.575 19.005 
459 1 8.145 10.86 19.005 
460 1 8.145 13.575 16.29 
461 1 6.7875 12.2175 17.6475 
462 1 6.7875 14.9325 20.3625 
463 1 9.5025 12.2175 20.3625 
464 1 9.5025 14.9325 17.6475 
465 1 10.86 10.86 16.29 
466 1 10.86 13.575 19.005 
467 1 13.575 10.86 19.005 
468 1 13.575 13.575 16.29 
469 1 12.2175 12.2175 17.6475 
470 1 12.2175 14.9325 20.3625 
471 1 14.9325 12.2175 20.3625 
472 1 14.9325 14.9325 17.6475 
473 1 16.29 10.86 16.29 
474 1 16.29 13.575 19.005 
475 1 19.005 10.86 19.005 
476 1 19.005 13.575 16.29 
477 1 17.6475 12.2175 17.6475 
478 1 17.6475 14.9325 20.3625 
479 1 20.3625 12.2175 20.3625 
480 1 20.3625 14.9325 17.6475 
481 1 0 16.29 16.29 
482 1 0 19.005 19.005 
483 1 2.715 16.29 19.005 
484 1 2.715 19.005 16.29 
485 1 1.3575 17.6475 17.6475 
486 1 1.3575 20.3625 20.3625 
487 1 4.0725 17.6475 20.3625 
488 1 4.0725 20.3625 17.6475 
489 1 5.43 16.29 16.29 
490 1 5.43 19.005 19.005 
491 1 8.145 16.29 19.005 
492 1 8.145 19.005 16.29 
493 1 6.7875 17.6475 17.6475 
494 1 6.7875 20.3625 20.3625 
495 1 9.5025 17.6475 20.3625 
496 1 9.5025 20.3625 17.6475 
497 1 10.86 16.29 16.29 
498 1 10.86 19.005 19.005 
499 1 13.575 16.29 19.005 
500 1 13.575 19.005 16.29 
501 1 12.2175 17.6475 17.6475 
502 1 12.2175 20.3625 20.3625 
503 1 14.9325 17.6475 20.3625 
504 1 14.9325 20.3625 17.6475 
505 1 16.29 16.29 16.29 
506 1 16.29 19.005 19.005 
507 1 19.005 16.29 19.005 
508 1 19.005 19.005 16.29 
509 1 17.6475 17.6475 17.6475 
510 1 17.6475 20.3625 20.3625 
511 1 20.3625 17.6475 20.3625 
ITEM: TIMESTEP
100
ITEM: NUMBER OF ATOMS
511
ITEM: BOX BOUNDS pp pp pp
-1.8015440483913107e-03 2.1721800844048403e+01
-1.8015440483913107e-03 2.1721800844048403e+01
-1.8015440483913107e-03 2.1721800844048403e+01
ITEM: ATOMS id type x y z 
1 1 -0.0055965 -0.0055965 -0.00842247 
2 1 -0.00152004 2.71173 2.71131 
3 1 2.71173 -0.00152004 2.71131 
4 1 2.7113 2.7113 -0.00414933 
5 1 1.35211 1.35211 1.3508 
6 1 1.35524 4.07016 4.06981 
7 1 4.07016 1.35524 4.06981 
8 1 4.06935 4.06935 1.3539 
9 1 5.42676 -0.00152004 -0.0037211 
10 1 5.42806 2.71341 2.71261 
11 1 8.14376 -0.00165794 2.71292 
12 1 8.14365 2.7133 -0.00215162 
13 1 6.78526 1.35524 1.35471 
14 1 6.78614 4.07081 4.07069 
15 1 9.50182 1.35553 4.07114 
16 1 9.50165 4.07104 1.35559 
17 1 10.86 -0.00182824 -0.00202499 
18 1 10.8595 2.71364 2.71369 
19 1 13.576 -0.00206673 2.71315 
20 1 13.575 2.71412 -0.00132851 
21 1 12.2175 1.35583 1.35612 
22 1 12.2175 4.07118 4.07163 
23 1 14.933 1.35583 4.0716 
24 1 14.9326 4.07194 1.35649 
25 1 16.2922 -0.00208337 -0.00307948 
26 1 16.2904 2.71412 2.71407 
27 1 19.0058 -0.00121699 2.71264 
28 1 19.0066 2.71237 -0.00307948 
29 1 17.6478 1.35678 1.35543 
30 1 17.6487 4.07157 4.0716 
31 1 20.3639 1.35594 4.07064 
32 1 20.3639 4.07043 1.35498 
33 1 -0.00152004 5.42676 -0.0037211 
34 1 -0.00165794 8.14376 2.71292 
35 1 2.71341 5.42806 2.71261 
36 1 2.7133 8.14365 -0.00215162 
37 1 1.35524 6.78526 1.35471 
38 1 1.35553 9.50182 4.07114 
39 1 4.07081 6.78614 4.07069 
40 1 4.07104 9.50165 1.35559 
41 1 5.42806 5.42806 -0.00203912 
42 1 5.42891 8.1441 2.71346 
43 1 8.1441 5.42891 2.71346 
44 1 8.14424 8.14424 -0.00185973 
45 1 6.78614 6.78614 1.35536 
46 1 6.78664 9.50206 4.07119 
47 1 9.50206 6.78664 4.07119 
48 1 9.50227 9.50227 1.35551 
49 1 10.8595 5.42914 -0.00180962 
50 1 10.8598 8.14472 2.71368 
51 1 13.5749 5.42966 2.71421 
52 1 13.5754 8.14501 -0.00180962 
53 1 12.2175 6.78708 1.35573 
54 1 12.2179 9.50249 4.07119 
55 1 14.9334 6.78708 4.07163 
56 1 14.9335 9.5029 1.35559 
57 1 16.2904 5.42952 -0.00132851 
58 1 16.2909 8.14501 2.71369 
59 1 19.0066 5.4286 2.71315 
60 1 19.0064 8.14458 -0.00202499 
61 1 17.6487 6.78705 1.35612 
62 1 17.649 9.50273 4.07114 
63 1 20.364 6.78656 4.07111 
64 1 20.3641 9.50227 1.35589 
65 1 -0.00182824 10.86 -0.00202499 
66 1 -0.00206673 13.576 2.71315 
67 1 2.71364 10.8595 2.71369 
68 1 2.71412 13.575 -0.00132851 
69 1 1.35583 12.2175 1.35612 
70 1 1.35583 14.933 4.0716 
71 1 4.07118 12.2175 4.07163 
72 1 4.07194 14.9326 1.35649 
73 1 5.42914 10.8595 -0.00180962 
74 1 5.42966 13.5749 2.71421 
75 1 8.14472 10.8598 2.71368 
76 1 8.14501 13.5754 -0.00180962 
77 1 6.78708 12.2175 1.35573 
78 1 6.78708 14.9334 4.07163 
79 1 9.50249 12.2179 4.07119 
80 1 9.5029 14.9335 1.35559 
81 1 10.8603 10.8603 -0.00185973 
82 1 10.8604 13.5756 2.71346 
83 1 13.5756 10.8604 2.71346 
84 1 13.5765 13.5765 -0.00203912 
85 1 12.2184 12.2184 1.35536 
86 1 12.2184 14.9337 4.07069 
87 1 14.9337 12.2184 4.07069 
88 1 14.9352 14.9352 1.3539 
89 1 16.2913 10.8609 -0.00215162 
90 1 16.2911 13.5765 2.71261 
91 1 19.0062 10.8608 2.71292 
92 1 19.0061 13.5778 -0.0037211 
93 1 17.6493 12.2193 1.35471 
94 1 17.6493 14.9344 4.06981 
95 1 20.3641 12.218 4.07111 
96 1 20.3642 14.9341 1.35498 
97 1 -0.00208337 16.2922 -0.00307948 
98 1 -0.00121699 19.0058 2.71264 
99 1 2.71412 16.2904 2.71407 
100 1 2.71237 19.0066 -0.00307948 
101 1 1.35678 17.6478 1.35543 
102 1 1.35594 20.3639 4.07064 
103 1 4.07157 17.6487 4.0716 
104 1 4.07043 20.3639 1.35498 
105 1 5.42952 16.2904 -0.00132851 
106 1 5.4286 19.0066 2.71315 
107 1 8.14501 16.2909 2.71369 
108 1 8.14458 19.0064 -0.00202499 
109 1 6.78705 17.6487 1.35612 
110 1 6.78656 20.364 4.07111 
111 1 9.50273 17.649 4.07114 
112 1 9.50227 20.3641 1.35589 
113 1 10.8609 16.2913 -0.00215162 
114 1 10.8608 19.0062 2.71292 
115 1 13.5765 16.2911 2.71261 
116 1 13.5778 19.0061 -0.0037211 
117 1 12.2193 17.6493 1.35471 
118 1 12.218 20.3641 4.07111 
119 1 14.9344 17.6493 4.06981 
120 1 14.9341 20.3642 1.35498 
121 1 16.2932 16.2932 -0.00414934 
122 1 16.2928 19.0061 2.71131 
123 1 19.0061 16.2928 2.71131 
124 1 19.0101 19.0101 -0.00842247 
125 1 17.6524 17.6524 1.3508 
126 1 17.6486 20.3643 4.07064 
127 1 20.3643 17.6486 4.07064 
128 1 20.3641 20.3641 1.35581 
129 1 -0.00205879 -0.00205879 5.42837 
130 1 -0.00182824 2.71343 8.14451 
131 1 2.71343 -0.00182824 8.14451 
132 1 2.7133 2.7133 5.4282 
133 1 1.35567 1.35567 6.78633 
134 1 1.35583 4.07157 9.50205 
135 1 4.07157 1.35583 9.50205 
136 1 4.07104 4.07104 6.7862 
137 1 5.42837 -0.00165794 5.42831 
138 1 5.42914 2.71364 8.14409 
139 1 8.14446 -0.00180695 8.14464 
140 1 8.14424 2.71359 5.42879 
141 1 6.78659 1.35553 6.78637 
142 1 6.78708 4.07118 9.50202 
143 1 9.50273 1.35553 9.50251 
144 1 9.50227 4.07096 6.78682 
145 1 10.8601 -0.00180695 5.42901 
146 1 10.8603 2.71359 8.14486 
147 1 13.5762 -0.00165794 8.14533 
148 1 13.5754 2.71364 5.42956 
149 1 12.218 1.35553 6.78728 
150 1 12.2184 4.07081 9.50296 
151 1 14.9344 1.35524 9.50384 
152 1 14.9335 4.07104 6.78745 
153 1 16.2911 -0.00182824 5.42913 
154 1 16.2913 2.7133 8.14545 
155 1 19.0066 -0.00205879 8.14528 
156 1 19.0064 2.71343 5.42913 
157 1 17.6489 1.35567 6.78732 
158 1 17.6493 4.07016 9.50384 
159 1 20.3643 1.35594 9.50301 
160 1 20.3641 4.07134 6.78682 
161 1 -0.00165794 5.42837 5.42831 
162 1 -0.00180695 8.14446 8.14464 
163 1 2.71364 5.42914 8.14409 
164 1 2.71359 8.14424 5.42879 
165 1 1.35553 6.78659 6.78637 
166 1 1.35553 9.50273 9.50251 
167 1 4.07118 6.78708 9.50202 
168 1 4.07096 9.50227 6.78682 
169 1 5.42891 5.42891 5.42865 
170 1 5.42913 8.14472 8.14438 
171 1 8.14472 5.42913 8.14438 
172 1 8.14449 8.14449 5.42904 
173 1 6.78664 6.78664 6.78661 
174 1 6.78664 9.50249 9.50246 
175 1 9.50249 6.78664 9.50246 
176 1 9.50227 9.50227 6.78682 
177 1 10.8598 5.42913 5.42927 
178 1 10.8601 8.14449 8.14461 
179 1 13.5756 5.42891 8.145 
180 1 13.5754 8.14472 5.42927 
181 1 12.2179 6.78664 6.78704 
182 1 12.2179 9.50206 9.50246 
183 1 14.9337 6.78614 9.50296 
184 1 14.9336 9.50227 6.78682 
185 1 16.2909 5.42914 5.42956 
186 1 16.291 8.14424 8.14486 
187 1 19.0062 5.42837 8.14533 
188 1 19.0064 8.14446 5.42901 
189 1 17.649 6.78659 6.78728 
190 1 17.649 9.50182 9.50251 
191 1 20.3641 6.78656 9.50254 
192 1 20.3641 9.50227 6.78682 
193 1 -0.00180695 10.8601 5.42901 
194 1 -0.00165794 13.5762 8.14533 
195 1 2.71359 10.8603 8.14486 
196 1 2.71364 13.5754 5.42956 
197 1 1.35553 12.218 6.78728 
198 1 1.35524 14.9344 9.50384 
199 1 4.07081 12.2184 9.50296 
200 1 4.07104 14.9335 6.78745 
201 1 5.42913 10.8598 5.42927 
202 1 5.42891 13.5756 8.145 
203 1 8.14449 10.8601 8.14461 
204 1 8.14472 13.5754 5.42927 
205 1 6.78664 12.2179 6.78704 
206 1 6.78614 14.9337 9.50296 
207 1 9.50206 12.2179 9.50246 
208 1 9.50227 14.9336 6.78682 
209 1 10.8601 10.8601 5.42904 
210 1 10.8598 13.5754 8.14438 
211 1 13.5754 10.8598 8.14438 
212 1 13.5756 13.5756 5.42865 
213 1 12.2179 12.2179 6.78661 
214 1 12.2175 14.9334 9.50202 
215 1 14.9334 12.2175 9.50202 
216 1 14.9335 14.9335 6.7862 
217 1 16.291 10.8603 5.42879 
218 1 16.2909 13.5754 8.14409 
219 1 19.0064 10.8601 8.14464 
220 1 19.0062 13.5762 5.42831 
221 1 17.649 12.218 6.78637 
222 1 17.6487 14.933 9.50205 
223 1 20.364 12.218 9.50254 
224 1 20.3641 14.9332 6.78682 
225 1 -0.00182824 16.2911 5.42913 
226 1 -0.00205879 19.0066 8.14528 
227 1 2.7133 16.2913 8.14545 
228 1 2.71343 19.0064 5.42913 
229 1 1.35567 17.6489 6.78732 
230 1 1.35594 20.3643 9.50301 
231 1 4.07016 17.6493 9.50384 
232 1 4.07134 20.3641 6.78682 
233 1 5.42914 16.2909 5.42956 
234 1 5.42837 19.0062 8.14533 
235 1 8.14424 16.291 8.14486 
236 1 8.14446 19.0064 5.42901 
237 1 6.78659 17.649 6.78728 
238 1 6.78656 20.3641 9.50254 
239 1 9.50182 17.649 9.50251 
240 1 9.50227 20.3641 6.78682 
241 1 10.8603 16.291 5.42879 
242 1 10.8601 19.0064 8.14464 
243 1 13.5754 16.2909 8.14409 
244 1 13.5762 19.0062 5.42831 
245 1 12.218 17.649 6.78637 
246 1 12.218 20.364 9.50254 
247 1 14.933 17.6487 9.50205 
248 1 14.9332 20.3641 6.78682 
249 1 16.2913 16.2913 5.4282 
250 1 16.2911 19.0064 8.14451 
251 1 19.0064 16.2911 8.14451 
252 1 19.0066 19.0066 5.42837 
253 1 17.6489 17.6489 6.78633 
254 1 17.6486 20.3639 9.50301 
255 1 20.3639 17.6486 9.50301 
256 1 20.3641 20.3641 6.78682 
257 1 -0.00121699 -0.00121699 10.861 
258 1 -0.00208337 2.71237 13.5767 
259 1 2.71237 -0.00208337 13.5767 
260 1 2.71412 2.71412 10.8596 
261 1 1.35678 1.35678 12.2182 
262 1 1.35678 4.07088 14.9323 
263 1 4.07088 1.35678 14.9323 
264 1 4.07194 4.07194 12.2172 
265 1 5.4286 -0.00206673 10.8605 
266 1 5.42952 2.71412 13.575 
267 1 8.14458 -0.00182824 13.5757 
268 1 8.14501 2.71364 10.86 
269 1 6.78705 1.35583 12.2175 
270 1 6.78705 4.07157 14.9333 
271 1 9.50277 1.35567 14.9334 
272 1 9.5029 4.07104 12.2181 
273 1 10.8608 -0.00165794 10.8607 
274 1 10.8609 2.7133 13.5758 
275 1 13.5778 -0.00152004 13.5774 
276 1 13.5765 2.71341 10.861 
277 1 12.2193 1.35524 12.2189 
278 1 12.2193 4.07016 14.9339 
279 1 14.9383 1.35211 14.937 
280 1 14.9352 4.06935 12.2198 
281 1 16.2928 -0.00152004 10.8623 
282 1 16.2932 2.7113 13.5778 
283 1 19.0101 -0.0055965 13.5821 
284 1 19.0061 2.71173 10.8623 
285 1 17.6524 1.35211 12.2228 
286 1 17.6524 4.06625 14.937 
287 1 20.3717 1.35065 14.9384 
288 1 20.3642 4.07043 12.2187 
289 1 -0.00206673 5.4286 10.8605 
290 1 -0.00182824 8.14458 13.5757 
291 1 2.71412 5.42952 13.575 
292 1 2.71364 8.14501 10.86 
293 1 1.35583 6.78705 12.2175 
294 1 1.35567 9.50277 14.9334 
295 1 4.07157 6.78705 14.9333 
296 1 4.07104 9.5029 12.2181 
297 1 5.42966 5.42966 10.8594 
298 1 5.42914 8.14501 13.5755 
299 1 8.14501 5.42914 13.5755 
300 1 8.14472 8.14472 10.86 
301 1 6.78708 6.78708 12.2179 
302 1 6.78659 9.50273 14.9336 
303 1 9.50273 6.78659 14.9336 
304 1 9.50227 9.50227 12.2181 
305 1 10.8604 5.42891 10.8602 
306 1 10.8603 8.14424 13.5755 
307 1 13.5765 5.42806 13.5757 
308 1 13.5756 8.1441 10.8602 
309 1 12.2184 6.78614 12.2183 
310 1 12.218 9.50182 14.9336 
311 1 14.9344 6.78526 14.9339 
312 1 14.9335 9.50165 12.2181 
313 1 16.2911 5.42806 10.861 
314 1 16.2913 8.14365 13.5758 
315 1 19.0061 5.42676 13.5774 
316 1 19.0062 8.14376 10.8607 
317 1 17.6493 6.78526 12.2189 
318 1 17.6489 9.50178 14.9334 
319 1 20.3643 6.78609 14.9332 
320 1 20.3641 9.50227 12.2178 
321 1 -0.00165794 10.8608 10.8607 
322 1 -0.00152004 13.5778 13.5774 
323 1 2.7133 10.8609 13.5758 
324 1 2.71341 13.5765 10.861 
325 1 1.35524 12.2193 12.2189 
326 1 1.35211 14.9383 14.937 
327 1 4.07016 12.2193 14.9339 
328 1 4.06935 14.9352 12.2198 
329 1 5.42891 10.8604 10.8602 
330 1 5.42806 13.5765 13.5757 
331 1 8.14424 10.8603 13.5755 
332 1 8.1441 13.5756 10.8602 
333 1 6.78614 12.2184 12.2183 
334 1 6.78526 14.9344 14.9339 
335 1 9.50182 12.218 14.9336 
336 1 9.50165 14.9335 12.2181 
337 1 10.8598 10.8598 10.86 
338 1 10.8595 13.5754 13.5755 
339 1 13.5754 10.8595 13.5755 
340 1 13.5749 13.5749 10.8594 
341 1 12.2175 12.2175 12.2179 
342 1 12.2175 14.933 14.9333 
343 1 14.933 12.2175 14.9333 
344 1 14.9326 14.9326 12.2172 
345 1 16.2909 10.8595 10.86 
346 1 16.2904 13.575 13.575 
347 1 19.0064 10.86 13.5757 
348 1 19.0066 13.576 10.8605 
349 1 17.6487 12.2175 12.2175 
350 1 17.6478 14.9337 14.9323 
351 1 20.3639 12.2185 14.9332 
352 1 20.3639 14.9341 12.2187 
353 1 -0.00152004 16.2928 10.8623 
354 1 -0.0055965 19.0101 13.5821 
355 1 2.7113 16.2932 13.5778 
356 1 2.71173 19.0061 10.8623 
357 1 1.35211 17.6524 12.2228 
358 1 1.35065 20.3717 14.9384 
359 1 4.06625 17.6524 14.937 
360 1 4.07043 20.3642 12.2187 
361 1 5.42806 16.2911 10.861 
362 1 5.42676 19.0061 13.5774 
363 1 8.14365 16.2913 13.5758 
364 1 8.14376 19.0062 10.8607 
365 1 6.78526 17.6493 12.2189 
366 1 6.78609 20.3643 14.9332 
367 1 9.50178 17.6489 14.9334 
368 1 9.50227 20.3641 12.2178 
369 1 10.8595 16.2909 10.86 
370 1 10.86 19.0064 13.5757 
371 1 13.575 16.2904 13.575 
372 1 13.576 19.0066 10.8605 
373 1 12.2175 17.6487 12.2175 
374 1 12.2185 20.3639 14.9332 
375 1 14.9337 17.6478 14.9323 
376 1 14.9341 20.3639 12.2187 
377 1 16.2904 16.2904 10.8596 
378 1 16.2922 19.0066 13.5767 
379 1 19.0066 16.2922 13.5767 
380 1 19.0058 19.0058 10.861 
381 1 17.6478 17.6478 12.2182 
382 1 17.6539 20.3565 14.9384 
383 1 20.3565 17.6539 14.9384 
384 1 20.3641 20.3641 12.2178 
385 1 0.0115497 0.0115497 16.2775 
386 1 -0.0055965 2.70703 19.0026 
387 1 2.70703 -0.0055965 19.0026 
388 1 2.71237 2.71237 16.2912 
389 1 1.35065 1.35065 17.641 
390 1 1.35211 4.06625 20.3603 
391 1 4.06625 1.35211 20.3603 
392 1 4.07043 4.07043 17.6485 
393 1 5.42809 -0.00121699 16.2903 
394 1 5.42676 2.71173 19.0066 
395 1 8.14382 -0.00205879 19.0061 
396 1 8.14458 2.71343 16.2909 
397 1 6.78609 1.35594 17.6484 
398 1 6.78526 4.07016 20.3634 
399 1 9.50178 1.35567 20.3638 
400 1 9.50227 4.07134 17.6486 
401 1 10.8607 -0.00205879 16.2912 
402 1 10.86 2.71343 19.0063 
403 1 13.5765 -0.00121699 19.0069 
404 1 13.5778 2.71173 16.2906 
405 1 12.2185 1.35594 17.6488 
406 1 12.2175 4.07157 20.364 
407 1 14.9337 1.35678 20.3649 
408 1 14.9341 4.07043 17.6488 
409 1 16.2975 -0.0055965 16.2947 
410 1 16.2922 2.71237 19.0061 
411 1 18.993 0.0115497 19.0197 
412 1 19.0101 2.70703 16.2947 
413 1 17.6539 1.35065 17.6562 
414 1 17.6478 4.07088 20.3649 
415 1 20.3565 1.35065 20.3588 
416 1 20.3641 4.07126 17.6486 
417 1 -0.00121699 5.42809 16.2903 
418 1 -0.00205879 8.14382 19.0061 
419 1 2.71173 5.42676 19.0066 
420 1 2.71343 8.14458 16.2909 
421 1 1.35594 6.78609 17.6484 
422 1 1.35567 9.50178 20.3638 
423 1 4.07016 6.78526 20.3634 
424 1 4.07134 9.50227 17.6486 
425 1 5.4286 5.4286 16.2912 
426 1 5.42837 8.14376 19.0065 
427 1 8.14376 5.42837 19.0065 
428 1 8.14446 8.14446 16.2909 
429 1 6.78656 6.78656 17.6486 
430 1 6.78659 9.50182 20.3637 
431 1 9.50182 6.78659 20.3637 
432 1 9.50227 9.50227 17.6486 
433 1 10.8608 5.42837 16.2908 
434 1 10.8601 8.14446 19.0063 
435 1 13.576 5.4286 19.0061 
436 1 13.5762 8.14376 16.2908 
437 1 12.218 6.78656 17.6487 
438 1 12.218 9.50273 20.3637 
439 1 14.933 6.78705 20.364 
440 1 14.9332 9.50227 17.6486 
441 1 16.2928 5.42676 16.2906 
442 1 16.2911 8.14458 19.0063 
443 1 19.0058 5.42809 19.0069 
444 1 19.0066 8.14382 16.2912 
445 1 17.6486 6.78609 17.6488 
446 1 17.6489 9.50277 20.3638 
447 1 20.3639 6.78609 20.3641 
448 1 20.3641 9.50227 17.6486 
449 1 -0.00205879 10.8607 16.2912 
450 1 -0.00121699 13.5765 19.0069 
451 1 2.71343 10.86 19.0063 
452 1 2.71173 13.5778 16.2906 
453 1 1.35594 12.2185 17.6488 
454 1 1.35678 14.9337 20.3649 
455 1 4.07157 12.2175 20.364 
456 1 4.07043 14.9341 17.6488 
457 1 5.42837 10.8608 16.2908 
458 1 5.4286 13.576 19.0061 
459 1 8.14446 10.8601 19.0063 
460 1 8.14376 13.5762 16.2908 
461 1 6.78656 12.218 17.6487 
462 1 6.78705 14.933 20.364 
463 1 9.50273 12.218 20.3637 
464 1 9.50227 14.9332 17.6486 
465 1 10.8601 10.8601 16.2909 
466 1 10.8608 13.5762 19.0065 
467 1 13.5762 10.8608 19.0065 
468 1 13.576 13.576 16.2912 
469 1 12.218 12.218 17.6486 
470 1 12.2193 14.9344 20.3634 
471 1 14.9344 12.2193 20.3634 
472 1 14.9341 14.9341 17.6485 
473 1 16.2911 10.86 16.2909 
474 1 16.2928 13.5778 19.0066 
475 1 19.0066 10.8607 19.0061 
476 1 19.0058 13.5765 16.2903 
477 1 17.6486 12.2185 17.6484 
478 1 17.6524 14.9383 20.3603 
479 1 20.3643 12.2185 20.3641 
480 1 20.3641 14.9333 17.6486 
481 1 -0.0055965 16.2975 16.2947 
482 1 0.0115497 18.993 19.0197 
483 1 2.71237 16.2922 19.0061 
484 1 2.70703 19.0101 16.2947 
485 1 1.35065 17.6539 17.6562 
486 1 1.35065 20.3565 20.3588 
487 1 4.07088 17.6478 20.3649 
488 1 4.07126 20.3641 17.6486 
489 1 5.42676 16.2928 16.2906 
490 1 5.42809 19.0058 19.0069 
491 1 8.14458 16.2911 19.0063 
492 1 8.14382 19.0066 16.2912 
493 1 6.78609 17.6486 17.6488 
494 1 6.78609 20.3639 20.3641 
495 1 9.50277 17.6489 20.3638 
496 1 9.50227 20.3641 17.6486 
497 1 10.86 16.2911 16.2909 
498 1 10.8607 19.0066 19.0061 
499 1 13.5778 16.2928 19.0066 
500 1 13.5765 19.0058 16.2903 
501 1 12.2185 17.6486 17.6484 
502 1 12.2185 20.3643 20.3641 
503 1 14.9383 17.6524 20.3603 
504 1 14.9333 20.3641 17.6486 
505 1 16.2922 16.2922 16.2912 
506 1 16.2975 19.0101 19.0026 
507 1 19.0101 16.2975 19.0026 
508 1 18.993 18.993 16.2775 
509 1 17.6539 17.6539 17.641 
510 1 17.6539 20.3717 20.3588 
511 1 20.3717 17.6539 20.3588 
ITEM: TIMESTEP
114
ITEM: NUMBER OF ATOMS
511