

215 atoms
1 atom types
0.0 16.289999 xlo xhi
0.0 16.289999 ylo yhi
0.0 16.289999 zlo zhi

Atoms

1 1 0.0 0.0 0.0
2 1 0.0 2.7149999 2.7149999
3 1 2.7149999 0.0 2.7149999
4 1 2.7149999 2.7149999 0.0
5 1 1.3575 1.3575 1.3575
6 1 1.3575 4.0725002 4.0725002
7 1 4.0725002 1.3575 4.0725002
8 1 4.0725002 4.0725002 1.3575
9 1 5.4299999 0.0 0.0
10 1 5.4299999 2.7149999 2.7149999
11 1 8.1450005 0.0 2.7149999
12 1 8.1450005 2.7149999 0.0
13 1 6.7874999 1.3575 1.3575
14 1 6.7874999 4.0725002 4.0725002
15 1 9.5024996 1.3575 4.0725002
16 1 9.5024996 4.0725002 1.3575
17 1 10.8599998 0.0 0.0
18 1 10.8599998 2.7149999 2.7149999
19 1 13.5749998 0.0 2.7149999
20 1 13.5749998 2.7149999 0.0
21 1 12.2174997 1.3575 1.3575
22 1 12.2174997 4.0725002 4.0725002
23 1 14.9325 1.3575 4.0725002
24 1 14.9325 4.0725002 1.3575
25 1 0.0 5.4299999 0.0
26 1 0.0 8.1450005 2.7149999
27 1 2.7149999 5.4299999 2.7149999
28 1 2.7149999 8.1450005 0.0
29 1 1.3575 6.7874999 1.3575
30 1 1.3575 9.5024996 4.0725002
31 1 4.0725002 6.7874999 4.0725002
32 1 4.0725002 9.5024996 1.3575
33 1 5.4299999 5.4299999 0.0
34 1 5.4299999 8.1450005 2.7149999
35 1 8.1450005 5.4299999 2.7149999
36 1 8.1450005 8.1450005 0.0
37 1 6.7874999 6.7874999 1.3575
38 1 6.7874999 9.5024996 4.0725002
39 1 9.5024996 6.7874999 4.0725002
40 1 9.5024996 9.5024996 1.3575
41 1 10.8599998 5.4299999 0.0
42 1 10.8599998 8.1450005 2.7149999
43 1 13.5749998 5.4299999 2.7149999
44 1 13.5749998 8.1450005 0.0
45 1 12.2174997 6.7874999 1.3575
46 1 12.2174997 9.5024996 4.0725002
47 1 14.9325 6.7874999 4.0725002
48 1 14.9325 9.5024996 1.3575
49 1 0.0 10.8599998 0.0
50 1 0.0 13.5749998 2.7149999
51 1 2.7149999 10.8599998 2.7149999
52 1 2.7149999 13.5749998 0.0
53 1 1.3575 12.2174997 1.3575
54 1 1.3575 14.9325 4.0725002
55 1 4.0725002 12.2174997 4.0725002
56 1 4.0725002 14.9325 1.3575
57 1 5.4299999 10.8599998 0.0
58 1 5.4299999 13.5749998 2.7149999
59 1 8.1450005 10.8599998 2.7149999
60 1 8.1450005 13.5749998 0.0
61 1 6.7874999 12.2174997 1.3575
62 1 6.7874999 14.9325 4.0725002
63 1 9.5024996 12.2174997 4.0725002
64 1 9.5024996 14.9325 1.3575
65 1 10.8599998 10.8599998 0.0
66 1 10.8599998 13.5749998 2.7149999
67 1 13.5749998 10.8599998 2.7149999
68 1 13.5749998 13.5749998 0.0
69 1 12.2174997 12.2174997 1.3575
70 1 12.2174997 14.9325 4.0725002
71 1 14.9325 12.2174997 4.0725002
72 1 14.9325 14.9325 1.3575
73 1 0.0 0.0 5.4299999
74 1 0.0 2.7149999 8.1450005
75 1 2.7149999 0.0 8.1450005
76 1 2.7149999 2.7149999 5.4299999
77 1 1.3575 1.3575 6.7874999
78 1 1.3575 4.0725002 9.5024996
79 1 4.0725002 1.3575 9.5024996
80 1 4.0725002 4.0725002 6.7874999
81 1 5.4299999 0.0 5.4299999
82 1 5.4299999 2.7149999 8.1450005
83 1 8.1450005 0.0 8.1450005
84 1 8.1450005 2.7149999 5.4299999
85 1 6.7874999 1.3575 6.7874999
86 1 6.7874999 4.0725002 9.5024996
87 1 9.5024996 1.3575 9.5024996
88 1 9.5024996 4.0725002 6.7874999
89 1 10.8599998 0.0 5.4299999
90 1 10.8599998 2.7149999 8.1450005
91 1 13.5749998 0.0 8.1450005
92 1 13.5749998 2.7149999 5.4299999
93 1 12.2174997 1.3575 6.7874999
94 1 12.2174997 4.0725002 9.5024996
95 1 14.9325 1.3575 9.5024996
96 1 14.9325 4.0725002 6.7874999
97 1 0.0 5.4299999 5.4299999
98 1 0.0 8.1450005 8.1450005
99 1 2.7149999 5.4299999 8.1450005
100 1 2.7149999 8.1450005 5.4299999
101 1 1.3575 6.7874999 6.7874999
102 1 1.3575 9.5024996 9.5024996
103 1 4.0725002 6.7874999 9.5024996
104 1 4.0725002 9.5024996 6.7874999
105 1 5.4299999 5.4299999 5.4299999
106 1 5.4299999 8.1450005 8.1450005
107 1 8.1450005 5.4299999 8.1450005
108 1 8.1450005 8.1450005 5.4299999
109 1 6.7874999 6.7874999 6.7874999
110 1 6.7874999 9.5024996 9.5024996
111 1 9.5024996 6.7874999 9.5024996
112 1 9.5024996 9.5024996 6.7874999
113 1 10.8599998 5.4299999 5.4299999
114 1 10.8599998 8.1450005 8.1450005
115 1 13.5749998 5.4299999 8.1450005
116 1 13.5749998 8.1450005 5.4299999
117 1 12.2174997 6.7874999 6.7874999
118 1 12.2174997 9.5024996 9.5024996
119 1 14.9325 6.7874999 9.5024996
120 1 14.9325 9.5024996 6.7874999
121 1 0.0 10.8599998 5.4299999
122 1 0.0 13.5749998 8.1450005
123 1 2.7149999 10.8599998 8.1450005
124 1 2.7149999 13.5749998 5.4299999
125 1 1.3575 12.2174997 6.7874999
126 1 1.3575 14.9325 9.5024996
127 1 4.0725002 12.2174997 9.5024996
128 1 4.0725002 14.9325 6.7874999
129 1 5.4299999 10.8599998 5.4299999
130 1 5.4299999 13.5749998 8.1450005
131 1 8.1450005 10.8599998 8.1450005
132 1 8.1450005 13.5749998 5.4299999
133 1 6.7874999 12.2174997 6.7874999
134 1 6.7874999 14.9325 9.5024996
135 1 9.5024996 12.2174997 9.5024996
136 1 9.5024996 14.9325 6.7874999
137 1 10.8599998 10.8599998 5.4299999
138 1 10.8599998 13.5749998 8.1450005
139 1 13.5749998 10.8599998 8.1450005
140 1 13.5749998 13.5749998 5.4299999
141 1 12.2174997 12.2174997 6.7874999
142 1 12.2174997 14.9325 9.5024996
143 1 14.9325 12.2174997 9.5024996
144 1 14.9325 14.9325 6.7874999
145 1 0.0 0.0 10.8599998
146 1 0.0 2.7149999 13.5749998
147 1 2.7149999 0.0 13.5749998
148 1 2.7149999 2.7149999 10.8599998
149 1 1.3575 1.3575 12.2174997
150 1 1.3575 4.0725002 14.9325
151 1 4.0725002 1.3575 14.9325
152 1 4.0725002 4.0725002 12.2174997
153 1 5.4299999 0.0 10.8599998
154 1 5.4299999 2.7149999 13.5749998
155 1 8.1450005 0.0 13.5749998
156 1 8.1450005 2.7149999 10.8599998
157 1 6.7874999 1.3575 12.2174997
158 1 6.7874999 4.0725002 14.9325
159 1 9.5024996 1.3575 14.9325
160 1 9.5024996 4.0725002 12.2174997
161 1 10.8599998 0.0 10.8599998
162 1 10.8599998 2.7149999 13.5749998
163 1 13.5749998 0.0 13.5749998
164 1 13.5749998 2.7149999 10.8599998
165 1 12.2174997 1.3575 12.2174997
166 1 12.2174997 4.0725002 14.9325
167 1 14.9325 1.3575 14.9325
168 1 14.9325 4.0725002 12.2174997
169 1 0.0 5.4299999 10.8599998
170 1 0.0 8.1450005 13.5749998
171 1 2.7149999 5.4299999 13.5749998
172 1 2.7149999 8.1450005 10.8599998
173 1 1.3575 6.7874999 12.2174997
174 1 1.3575 9.5024996 14.9325
175 1 4.0725002 6.7874999 14.9325
176 1 4.0725002 9.5024996 12.2174997
177 1 5.4299999 5.4299999 10.8599998
178 1 5.4299999 8.1450005 13.5749998
179 1 8.1450005 5.4299999 13.5749998
180 1 8.1450005 8.1450005 10.8599998
181 1 6.7874999 6.7874999 12.2174997
182 1 6.7874999 9.5024996 14.9325
183 1 9.5024996 6.7874999 14.9325
184 1 9.5024996 9.5024996 12.2174997
185 1 10.8599998 5.4299999 10.8599998
186 1 10.8599998 8.1450005 13.5749998
187 1 13.5749998 5.4299999 13.5749998
188 1 13.5749998 8.1450005 10.8599998
189 1 12.2174997 6.7874999 12.2174997
190 1 12.2174997 9.5024996 14.9325
191 1 14.9325 6.7874999 14.9325
192 1 14.9325 9.5024996 12.2174997
193 1 0.0 10.8599998 10.8599998
194 1 0.0 13.5749998 13.5749998
195 1 2.7149999 10.8599998 13.5749998
196 1 2.7149999 13.5749998 10.8599998
197 1 1.3575 12.2174997 12.2174997
198 1 1.3575 14.9325 14.9325
199 1 4.0725002 12.2174997 14.9325
200 1 4.0725002 14.9325 12.2174997
201 1 5.4299999 10.8599998 10.8599998
202 1 5.4299999 13.5749998 13.5749998
203 1 8.1450005 10.8599998 13.5749998
204 1 8.1450005 13.5749998 10.8599998
205 1 6.7874999 12.2174997 12.2174997
206 1 6.7874999 14.9325 14.9325
207 1 9.5024996 12.2174997 14.9325
208 1 9.5024996 14.9325 12.2174997
209 1 10.8599998 10.8599998 10.8599998
210 1 10.8599998 13.5749998 13.5749998
211 1 13.5749998 10.8599998 13.5749998
212 1 13.5749998 13.5749998 10.8599998
213 1 12.2174997 12.2174997 12.2174997
214 1 12.2174997 14.9325 14.9325
215 1 14.9325 12.2174997 14.9325
