

8 atoms
1 atom types
0.0 5.962 xlo xhi
0.0 5.962 ylo yhi
0.0 5.962 zlo zhi

Atoms

1 1 0.0 0.0 0.0
2 1 0.0 2.9865 2.9865
3 1 2.9865 0.0 2.9865
4 1 2.9865 2.9865 0.0
5 1 1.49325 1.49325 1.49325
6 1 1.49325 4.477275 4.477275
7 1 4.477275 1.42325 4.477275
8 1 4.477275 4.477275 1.49325
