ITEM: TIMESTEP
0
ITEM: NUMBER OF ATOMS
512
ITEM: BOX BOUNDS pp pp pp
0.0000000000000000e+00 2.3847999999999999e+01
0.0000000000000000e+00 2.3847999999999999e+01
0.0000000000000000e+00 2.3847999999999999e+01
ITEM: ATOMS id type x y z 
1 1 0 0 0 
2 1 0 2.9865 2.9865 
3 1 2.9865 0 2.9865 
4 1 2.9865 2.9865 0 
5 1 1.49325 1.49325 1.49325 
6 1 1.49325 4.47727 4.47727 
7 1 4.47727 1.42325 4.47727 
8 1 4.47727 4.47727 1.49325 
9 1 5.962 0 0 
10 1 5.962 2.9865 2.9865 
11 1 8.9485 0 2.9865 
12 1 8.9485 2.9865 0 
13 1 7.45525 1.49325 1.49325 
14 1 7.45525 4.47727 4.47727 
15 1 10.4393 1.42325 4.47727 
16 1 10.4393 4.47727 1.49325 
17 1 11.924 0 0 
18 1 11.924 2.9865 2.9865 
19 1 14.9105 0 2.9865 
20 1 14.9105 2.9865 0 
21 1 13.4172 1.49325 1.49325 
22 1 13.4172 4.47727 4.47727 
23 1 16.4013 1.42325 4.47727 
24 1 16.4013 4.47727 1.49325 
25 1 17.886 0 0 
26 1 17.886 2.9865 2.9865 
27 1 20.8725 0 2.9865 
28 1 20.8725 2.9865 0 
29 1 19.3792 1.49325 1.49325 
30 1 19.3792 4.47727 4.47727 
31 1 22.3633 1.42325 4.47727 
32 1 22.3633 4.47727 1.49325 
33 1 0 5.962 0 
34 1 0 8.9485 2.9865 
35 1 2.9865 5.962 2.9865 
36 1 2.9865 8.9485 0 
37 1 1.49325 7.45525 1.49325 
38 1 1.49325 10.4393 4.47727 
39 1 4.47727 7.38525 4.47727 
40 1 4.47727 10.4393 1.49325 
41 1 5.962 5.962 0 
42 1 5.962 8.9485 2.9865 
43 1 8.9485 5.962 2.9865 
44 1 8.9485 8.9485 0 
45 1 7.45525 7.45525 1.49325 
46 1 7.45525 10.4393 4.47727 
47 1 10.4393 7.38525 4.47727 
48 1 10.4393 10.4393 1.49325 
49 1 11.924 5.962 0 
50 1 11.924 8.9485 2.9865 
51 1 14.9105 5.962 2.9865 
52 1 14.9105 8.9485 0 
53 1 13.4172 7.45525 1.49325 
54 1 13.4172 10.4393 4.47727 
55 1 16.4013 7.38525 4.47727 
56 1 16.4013 10.4393 1.49325 
57 1 17.886 5.962 0 
58 1 17.886 8.9485 2.9865 
59 1 20.8725 5.962 2.9865 
60 1 20.8725 8.9485 0 
61 1 19.3792 7.45525 1.49325 
62 1 19.3792 10.4393 4.47727 
63 1 22.3633 7.38525 4.47727 
64 1 22.3633 10.4393 1.49325 
65 1 0 11.924 0 
66 1 0 14.9105 2.9865 
67 1 2.9865 11.924 2.9865 
68 1 2.9865 14.9105 0 
69 1 1.49325 13.4172 1.49325 
70 1 1.49325 16.4013 4.47727 
71 1 4.47727 13.3472 4.47727 
72 1 4.47727 16.4013 1.49325 
73 1 5.962 11.924 0 
74 1 5.962 14.9105 2.9865 
75 1 8.9485 11.924 2.9865 
76 1 8.9485 14.9105 0 
77 1 7.45525 13.4172 1.49325 
78 1 7.45525 16.4013 4.47727 
79 1 10.4393 13.3472 4.47727 
80 1 10.4393 16.4013 1.49325 
81 1 11.924 11.924 0 
82 1 11.924 14.9105 2.9865 
83 1 14.9105 11.924 2.9865 
84 1 14.9105 14.9105 0 
85 1 13.4172 13.4172 1.49325 
86 1 13.4172 16.4013 4.47727 
87 1 16.4013 13.3472 4.47727 
88 1 16.4013 16.4013 1.49325 
89 1 17.886 11.924 0 
90 1 17.886 14.9105 2.9865 
91 1 20.8725 11.924 2.9865 
92 1 20.8725 14.9105 0 
93 1 19.3792 13.4172 1.49325 
94 1 19.3792 16.4013 4.47727 
95 1 22.3633 13.3472 4.47727 
96 1 22.3633 16.4013 1.49325 
97 1 0 17.886 0 
98 1 0 20.8725 2.9865 
99 1 2.9865 17.886 2.9865 
100 1 2.9865 20.8725 0 
101 1 1.49325 19.3792 1.49325 
102 1 1.49325 22.3633 4.47727 
103 1 4.47727 19.3092 4.47727 
104 1 4.47727 22.3633 1.49325 
105 1 5.962 17.886 0 
106 1 5.962 20.8725 2.9865 
107 1 8.9485 17.886 2.9865 
108 1 8.9485 20.8725 0 
109 1 7.45525 19.3792 1.49325 
110 1 7.45525 22.3633 4.47727 
111 1 10.4393 19.3092 4.47727 
112 1 10.4393 22.3633 1.49325 
113 1 11.924 17.886 0 
114 1 11.924 20.8725 2.9865 
115 1 14.9105 17.886 2.9865 
116 1 14.9105 20.8725 0 
117 1 13.4172 19.3792 1.49325 
118 1 13.4172 22.3633 4.47727 
119 1 16.4013 19.3092 4.47727 
120 1 16.4013 22.3633 1.49325 
121 1 17.886 17.886 0 
122 1 17.886 20.8725 2.9865 
123 1 20.8725 17.886 2.9865 
124 1 20.8725 20.8725 0 
125 1 19.3792 19.3792 1.49325 
126 1 19.3792 22.3633 4.47727 
127 1 22.3633 19.3092 4.47727 
128 1 22.3633 22.3633 1.49325 
129 1 0 0 5.962 
130 1 0 2.9865 8.9485 
131 1 2.9865 0 8.9485 
132 1 2.9865 2.9865 5.962 
133 1 1.49325 1.49325 7.45525 
134 1 1.49325 4.47727 10.4393 
135 1 4.47727 1.42325 10.4393 
136 1 4.47727 4.47727 7.45525 
137 1 5.962 0 5.962 
138 1 5.962 2.9865 8.9485 
139 1 8.9485 0 8.9485 
140 1 8.9485 2.9865 5.962 
141 1 7.45525 1.49325 7.45525 
142 1 7.45525 4.47727 10.4393 
143 1 10.4393 1.42325 10.4393 
144 1 10.4393 4.47727 7.45525 
145 1 11.924 0 5.962 
146 1 11.924 2.9865 8.9485 
147 1 14.9105 0 8.9485 
148 1 14.9105 2.9865 5.962 
149 1 13.4172 1.49325 7.45525 
150 1 13.4172 4.47727 10.4393 
151 1 16.4013 1.42325 10.4393 
152 1 16.4013 4.47727 7.45525 
153 1 17.886 0 5.962 
154 1 17.886 2.9865 8.9485 
155 1 20.8725 0 8.9485 
156 1 20.8725 2.9865 5.962 
157 1 19.3792 1.49325 7.45525 
158 1 19.3792 4.47727 10.4393 
159 1 22.3633 1.42325 10.4393 
160 1 22.3633 4.47727 7.45525 
161 1 0 5.962 5.962 
162 1 0 8.9485 8.9485 
163 1 2.9865 5.962 8.9485 
164 1 2.9865 8.9485 5.962 
165 1 1.49325 7.45525 7.45525 
166 1 1.49325 10.4393 10.4393 
167 1 4.47727 7.38525 10.4393 
168 1 4.47727 10.4393 7.45525 
169 1 5.962 5.962 5.962 
170 1 5.962 8.9485 8.9485 
171 1 8.9485 5.962 8.9485 
172 1 8.9485 8.9485 5.962 
173 1 7.45525 7.45525 7.45525 
174 1 7.45525 10.4393 10.4393 
175 1 10.4393 7.38525 10.4393 
176 1 10.4393 10.4393 7.45525 
177 1 11.924 5.962 5.962 
178 1 11.924 8.9485 8.9485 
179 1 14.9105 5.962 8.9485 
180 1 14.9105 8.9485 5.962 
181 1 13.4172 7.45525 7.45525 
182 1 13.4172 10.4393 10.4393 
183 1 16.4013 7.38525 10.4393 
184 1 16.4013 10.4393 7.45525 
185 1 17.886 5.962 5.962 
186 1 17.886 8.9485 8.9485 
187 1 20.8725 5.962 8.9485 
188 1 20.8725 8.9485 5.962 
189 1 19.3792 7.45525 7.45525 
190 1 19.3792 10.4393 10.4393 
191 1 22.3633 7.38525 10.4393 
192 1 22.3633 10.4393 7.45525 
193 1 0 11.924 5.962 
194 1 0 14.9105 8.9485 
195 1 2.9865 11.924 8.9485 
196 1 2.9865 14.9105 5.962 
197 1 1.49325 13.4172 7.45525 
198 1 1.49325 16.4013 10.4393 
199 1 4.47727 13.3472 10.4393 
200 1 4.47727 16.4013 7.45525 
201 1 5.962 11.924 5.962 
202 1 5.962 14.9105 8.9485 
203 1 8.9485 11.924 8.9485 
204 1 8.9485 14.9105 5.962 
205 1 7.45525 13.4172 7.45525 
206 1 7.45525 16.4013 10.4393 
207 1 10.4393 13.3472 10.4393 
208 1 10.4393 16.4013 7.45525 
209 1 11.924 11.924 5.962 
210 1 11.924 14.9105 8.9485 
211 1 14.9105 11.924 8.9485 
212 1 14.9105 14.9105 5.962 
213 1 13.4172 13.4172 7.45525 
214 1 13.4172 16.4013 10.4393 
215 1 16.4013 13.3472 10.4393 
216 1 16.4013 16.4013 7.45525 
217 1 17.886 11.924 5.962 
218 1 17.886 14.9105 8.9485 
219 1 20.8725 11.924 8.9485 
220 1 20.8725 14.9105 5.962 
221 1 19.3792 13.4172 7.45525 
222 1 19.3792 16.4013 10.4393 
223 1 22.3633 13.3472 10.4393 
224 1 22.3633 16.4013 7.45525 
225 1 0 17.886 5.962 
226 1 0 20.8725 8.9485 
227 1 2.9865 17.886 8.9485 
228 1 2.9865 20.8725 5.962 
229 1 1.49325 19.3792 7.45525 
230 1 1.49325 22.3633 10.4393 
231 1 4.47727 19.3092 10.4393 
232 1 4.47727 22.3633 7.45525 
233 1 5.962 17.886 5.962 
234 1 5.962 20.8725 8.9485 
235 1 8.9485 17.886 8.9485 
236 1 8.9485 20.8725 5.962 
237 1 7.45525 19.3792 7.45525 
238 1 7.45525 22.3633 10.4393 
239 1 10.4393 19.3092 10.4393 
240 1 10.4393 22.3633 7.45525 
241 1 11.924 17.886 5.962 
242 1 11.924 20.8725 8.9485 
243 1 14.9105 17.886 8.9485 
244 1 14.9105 20.8725 5.962 
245 1 13.4172 19.3792 7.45525 
246 1 13.4172 22.3633 10.4393 
247 1 16.4013 19.3092 10.4393 
248 1 16.4013 22.3633 7.45525 
249 1 17.886 17.886 5.962 
250 1 17.886 20.8725 8.9485 
251 1 20.8725 17.886 8.9485 
252 1 20.8725 20.8725 5.962 
253 1 19.3792 19.3792 7.45525 
254 1 19.3792 22.3633 10.4393 
255 1 22.3633 19.3092 10.4393 
256 1 22.3633 22.3633 7.45525 
257 1 0 0 11.924 
258 1 0 2.9865 14.9105 
259 1 2.9865 0 14.9105 
260 1 2.9865 2.9865 11.924 
261 1 1.49325 1.49325 13.4172 
262 1 1.49325 4.47727 16.4013 
263 1 4.47727 1.42325 16.4013 
264 1 4.47727 4.47727 13.4172 
265 1 5.962 0 11.924 
266 1 5.962 2.9865 14.9105 
267 1 8.9485 0 14.9105 
268 1 8.9485 2.9865 11.924 
269 1 7.45525 1.49325 13.4172 
270 1 7.45525 4.47727 16.4013 
271 1 10.4393 1.42325 16.4013 
272 1 10.4393 4.47727 13.4172 
273 1 11.924 0 11.924 
274 1 11.924 2.9865 14.9105 
275 1 14.9105 0 14.9105 
276 1 14.9105 2.9865 11.924 
277 1 13.4172 1.49325 13.4172 
278 1 13.4172 4.47727 16.4013 
279 1 16.4013 1.42325 16.4013 
280 1 16.4013 4.47727 13.4172 
281 1 17.886 0 11.924 
282 1 17.886 2.9865 14.9105 
283 1 20.8725 0 14.9105 
284 1 20.8725 2.9865 11.924 
285 1 19.3792 1.49325 13.4172 
286 1 19.3792 4.47727 16.4013 
287 1 22.3633 1.42325 16.4013 
288 1 22.3633 4.47727 13.4172 
289 1 0 5.962 11.924 
290 1 0 8.9485 14.9105 
291 1 2.9865 5.962 14.9105 
292 1 2.9865 8.9485 11.924 
293 1 1.49325 7.45525 13.4172 
294 1 1.49325 10.4393 16.4013 
295 1 4.47727 7.38525 16.4013 
296 1 4.47727 10.4393 13.4172 
297 1 5.962 5.962 11.924 
298 1 5.962 8.9485 14.9105 
299 1 8.9485 5.962 14.9105 
300 1 8.9485 8.9485 11.924 
301 1 7.45525 7.45525 13.4172 
302 1 7.45525 10.4393 16.4013 
303 1 10.4393 7.38525 16.4013 
304 1 10.4393 10.4393 13.4172 
305 1 11.924 5.962 11.924 
306 1 11.924 8.9485 14.9105 
307 1 14.9105 5.962 14.9105 
308 1 14.9105 8.9485 11.924 
309 1 13.4172 7.45525 13.4172 
310 1 13.4172 10.4393 16.4013 
311 1 16.4013 7.38525 16.4013 
312 1 16.4013 10.4393 13.4172 
313 1 17.886 5.962 11.924 
314 1 17.886 8.9485 14.9105 
315 1 20.8725 5.962 14.9105 
316 1 20.8725 8.9485 11.924 
317 1 19.3792 7.45525 13.4172 
318 1 19.3792 10.4393 16.4013 
319 1 22.3633 7.38525 16.4013 
320 1 22.3633 10.4393 13.4172 
321 1 0 11.924 11.924 
322 1 0 14.9105 14.9105 
323 1 2.9865 11.924 14.9105 
324 1 2.9865 14.9105 11.924 
325 1 1.49325 13.4172 13.4172 
326 1 1.49325 16.4013 16.4013 
327 1 4.47727 13.3472 16.4013 
328 1 4.47727 16.4013 13.4172 
329 1 5.962 11.924 11.924 
330 1 5.962 14.9105 14.9105 
331 1 8.9485 11.924 14.9105 
332 1 8.9485 14.9105 11.924 
333 1 7.45525 13.4172 13.4172 
334 1 7.45525 16.4013 16.4013 
335 1 10.4393 13.3472 16.4013 
336 1 10.4393 16.4013 13.4172 
337 1 11.924 11.924 11.924 
338 1 11.924 14.9105 14.9105 
339 1 14.9105 11.924 14.9105 
340 1 14.9105 14.9105 11.924 
341 1 13.4172 13.4172 13.4172 
342 1 13.4172 16.4013 16.4013 
343 1 16.4013 13.3472 16.4013 
344 1 16.4013 16.4013 13.4172 
345 1 17.886 11.924 11.924 
346 1 17.886 14.9105 14.9105 
347 1 20.8725 11.924 14.9105 
348 1 20.8725 14.9105 11.924 
349 1 19.3792 13.4172 13.4172 
350 1 19.3792 16.4013 16.4013 
351 1 22.3633 13.3472 16.4013 
352 1 22.3633 16.4013 13.4172 
353 1 0 17.886 11.924 
354 1 0 20.8725 14.9105 
355 1 2.9865 17.886 14.9105 
356 1 2.9865 20.8725 11.924 
357 1 1.49325 19.3792 13.4172 
358 1 1.49325 22.3633 16.4013 
359 1 4.47727 19.3092 16.4013 
360 1 4.47727 22.3633 13.4172 
361 1 5.962 17.886 11.924 
362 1 5.962 20.8725 14.9105 
363 1 8.9485 17.886 14.9105 
364 1 8.9485 20.8725 11.924 
365 1 7.45525 19.3792 13.4172 
366 1 7.45525 22.3633 16.4013 
367 1 10.4393 19.3092 16.4013 
368 1 10.4393 22.3633 13.4172 
369 1 11.924 17.886 11.924 
370 1 11.924 20.8725 14.9105 
371 1 14.9105 17.886 14.9105 
372 1 14.9105 20.8725 11.924 
373 1 13.4172 19.3792 13.4172 
374 1 13.4172 22.3633 16.4013 
375 1 16.4013 19.3092 16.4013 
376 1 16.4013 22.3633 13.4172 
377 1 17.886 17.886 11.924 
378 1 17.886 20.8725 14.9105 
379 1 20.8725 17.886 14.9105 
380 1 20.8725 20.8725 11.924 
381 1 19.3792 19.3792 13.4172 
382 1 19.3792 22.3633 16.4013 
383 1 22.3633 19.3092 16.4013 
384 1 22.3633 22.3633 13.4172 
385 1 0 0 17.886 
386 1 0 2.9865 20.8725 
387 1 2.9865 0 20.8725 
388 1 2.9865 2.9865 17.886 
389 1 1.49325 1.49325 19.3792 
390 1 1.49325 4.47727 22.3633 
391 1 4.47727 1.42325 22.3633 
392 1 4.47727 4.47727 19.3792 
393 1 5.962 0 17.886 
394 1 5.962 2.9865 20.8725 
395 1 8.9485 0 20.8725 
396 1 8.9485 2.9865 17.886 
397 1 7.45525 1.49325 19.3792 
398 1 7.45525 4.47727 22.3633 
399 1 10.4393 1.42325 22.3633 
400 1 10.4393 4.47727 19.3792 
401 1 11.924 0 17.886 
402 1 11.924 2.9865 20.8725 
403 1 14.9105 0 20.8725 
404 1 14.9105 2.9865 17.886 
405 1 13.4172 1.49325 19.3792 
406 1 13.4172 4.47727 22.3633 
407 1 16.4013 1.42325 22.3633 
408 1 16.4013 4.47727 19.3792 
409 1 17.886 0 17.886 
410 1 17.886 2.9865 20.8725 
411 1 20.8725 0 20.8725 
412 1 20.8725 2.9865 17.886 
413 1 19.3792 1.49325 19.3792 
414 1 19.3792 4.47727 22.3633 
415 1 22.3633 1.42325 22.3633 
416 1 22.3633 4.47727 19.3792 
417 1 0 5.962 17.886 
418 1 0 8.9485 20.8725 
419 1 2.9865 5.962 20.8725 
420 1 2.9865 8.9485 17.886 
421 1 1.49325 7.45525 19.3792 
422 1 1.49325 10.4393 22.3633 
423 1 4.47727 7.38525 22.3633 
424 1 4.47727 10.4393 19.3792 
425 1 5.962 5.962 17.886 
426 1 5.962 8.9485 20.8725 
427 1 8.9485 5.962 20.8725 
428 1 8.9485 8.9485 17.886 
429 1 7.45525 7.45525 19.3792 
430 1 7.45525 10.4393 22.3633 
431 1 10.4393 7.38525 22.3633 
432 1 10.4393 10.4393 19.3792 
433 1 11.924 5.962 17.886 
434 1 11.924 8.9485 20.8725 
435 1 14.9105 5.962 20.8725 
436 1 14.9105 8.9485 17.886 
437 1 13.4172 7.45525 19.3792 
438 1 13.4172 10.4393 22.3633 
439 1 16.4013 7.38525 22.3633 
440 1 16.4013 10.4393 19.3792 
441 1 17.886 5.962 17.886 
442 1 17.886 8.9485 20.8725 
443 1 20.8725 5.962 20.8725 
444 1 20.8725 8.9485 17.886 
445 1 19.3792 7.45525 19.3792 
446 1 19.3792 10.4393 22.3633 
447 1 22.3633 7.38525 22.3633 
448 1 22.3633 10.4393 19.3792 
449 1 0 11.924 17.886 
450 1 0 14.9105 20.8725 
451 1 2.9865 11.924 20.8725 
452 1 2.9865 14.9105 17.886 
453 1 1.49325 13.4172 19.3792 
454 1 1.49325 16.4013 22.3633 
455 1 4.47727 13.3472 22.3633 
456 1 4.47727 16.4013 19.3792 
457 1 5.962 11.924 17.886 
458 1 5.962 14.9105 20.8725 
459 1 8.9485 11.924 20.8725 
460 1 8.9485 14.9105 17.886 
461 1 7.45525 13.4172 19.3792 
462 1 7.45525 16.4013 22.3633 
463 1 10.4393 13.3472 22.3633 
464 1 10.4393 16.4013 19.3792 
465 1 11.924 11.924 17.886 
466 1 11.924 14.9105 20.8725 
467 1 14.9105 11.924 20.8725 
468 1 14.9105 14.9105 17.886 
469 1 13.4172 13.4172 19.3792 
470 1 13.4172 16.4013 22.3633 
471 1 16.4013 13.3472 22.3633 
472 1 16.4013 16.4013 19.3792 
473 1 17.886 11.924 17.886 
474 1 17.886 14.9105 20.8725 
475 1 20.8725 11.924 20.8725 
476 1 20.8725 14.9105 17.886 
477 1 19.3792 13.4172 19.3792 
478 1 19.3792 16.4013 22.3633 
479 1 22.3633 13.3472 22.3633 
480 1 22.3633 16.4013 19.3792 
481 1 0 17.886 17.886 
482 1 0 20.8725 20.8725 
483 1 2.9865 17.886 20.8725 
484 1 2.9865 20.8725 17.886 
485 1 1.49325 19.3792 19.3792 
486 1 1.49325 22.3633 22.3633 
487 1 4.47727 19.3092 22.3633 
488 1 4.47727 22.3633 19.3792 
489 1 5.962 17.886 17.886 
490 1 5.962 20.8725 20.8725 
491 1 8.9485 17.886 20.8725 
492 1 8.9485 20.8725 17.886 
493 1 7.45525 19.3792 19.3792 
494 1 7.45525 22.3633 22.3633 
495 1 10.4393 19.3092 22.3633 
496 1 10.4393 22.3633 19.3792 
497 1 11.924 17.886 17.886 
498 1 11.924 20.8725 20.8725 
499 1 14.9105 17.886 20.8725 
500 1 14.9105 20.8725 17.886 
501 1 13.4172 19.3792 19.3792 
502 1 13.4172 22.3633 22.3633 
503 1 16.4013 19.3092 22.3633 
504 1 16.4013 22.3633 19.3792 
505 1 17.886 17.886 17.886 
506 1 17.886 20.8725 20.8725 
507 1 20.8725 17.886 20.8725 
508 1 20.8725 20.8725 17.886 
509 1 19.3792 19.3792 19.3792 
510 1 19.3792 22.3633 22.3633 
511 1 22.3633 19.3092 22.3633 
512 1 22.3633 22.3633 19.3792 
ITEM: TIMESTEP
100
ITEM: NUMBER OF ATOMS
512
ITEM: BOX BOUNDS pp pp pp
1.0616547932645217e+00 2.2786345206735433e+01
1.0616547932645217e+00 2.2786345206735433e+01
1.0616547932645217e+00 2.2786345206735433e+01
ITEM: ATOMS id type x y z 
1 1 1.07097 22.7815 1.07097 
2 1 22.7835 3.77226 3.78658 
3 1 3.77435 22.7814 3.77435 
4 1 3.78658 3.77226 22.7835 
5 1 2.42262 2.42713 2.42262 
6 1 2.42262 5.13035 5.13821 
7 1 5.13819 2.40267 5.13819 
8 1 5.13821 5.13035 2.42262 
9 1 6.50215 22.7815 1.07097 
10 1 6.48994 3.77226 3.78658 
11 1 9.20552 22.7814 3.77435 
12 1 9.21775 3.77226 22.7835 
13 1 7.85379 2.42713 2.42262 
14 1 7.85379 5.13035 5.13821 
15 1 10.5694 2.40267 5.13819 
16 1 10.5694 5.13035 2.42262 
17 1 11.9333 22.7815 1.07097 
18 1 11.9211 3.77226 3.78658 
19 1 14.6367 22.7814 3.77435 
20 1 14.6489 3.77226 22.7835 
21 1 13.285 2.42713 2.42262 
22 1 13.285 5.13035 5.13821 
23 1 16.0005 2.40267 5.13819 
24 1 16.0006 5.13035 2.42262 
25 1 17.3645 22.7815 1.07097 
26 1 17.3523 3.77226 3.78658 
27 1 20.0679 22.7814 3.77435 
28 1 20.0801 3.77226 22.7835 
29 1 18.7161 2.42713 2.42262 
30 1 18.7161 5.13035 5.13821 
31 1 21.4317 2.40267 5.13819 
32 1 21.4317 5.13035 2.42262 
33 1 1.07097 6.48795 1.07097 
34 1 22.7835 9.20343 3.78658 
35 1 3.77435 6.48792 3.77435 
36 1 3.78658 9.20343 22.7835 
37 1 2.42262 7.8583 2.42262 
38 1 2.42262 10.5615 5.13821 
39 1 5.13819 7.83385 5.13819 
40 1 5.13821 10.5615 2.42262 
41 1 6.50215 6.48795 1.07097 
42 1 6.48994 9.20343 3.78658 
43 1 9.20552 6.48792 3.77435 
44 1 9.21775 9.20343 22.7835 
45 1 7.85379 7.8583 2.42262 
46 1 7.85379 10.5615 5.13821 
47 1 10.5694 7.83385 5.13819 
48 1 10.5694 10.5615 2.42262 
49 1 11.9333 6.48795 1.07097 
50 1 11.9211 9.20343 3.78658 
51 1 14.6367 6.48792 3.77435 
52 1 14.6489 9.20343 22.7835 
53 1 13.285 7.8583 2.42262 
54 1 13.285 10.5615 5.13821 
55 1 16.0005 7.83385 5.13819 
56 1 16.0006 10.5615 2.42262 
57 1 17.3645 6.48795 1.07097 
58 1 17.3523 9.20343 3.78658 
59 1 20.0679 6.48792 3.77435 
60 1 20.0801 9.20343 22.7835 
61 1 18.7161 7.8583 2.42262 
62 1 18.7161 10.5615 5.13821 
63 1 21.4317 7.83385 5.13819 
64 1 21.4317 10.5615 2.42262 
65 1 1.07097 11.9191 1.07097 
66 1 22.7835 14.6346 3.78658 
67 1 3.77435 11.9191 3.77435 
68 1 3.78658 14.6346 22.7835 
69 1 2.42262 13.2895 2.42262 
70 1 2.42262 15.9927 5.13821 
71 1 5.13819 13.265 5.13819 
72 1 5.13821 15.9927 2.42262 
73 1 6.50215 11.9191 1.07097 
74 1 6.48994 14.6346 3.78658 
75 1 9.20552 11.9191 3.77435 
76 1 9.21775 14.6346 22.7835 
77 1 7.85379 13.2895 2.42262 
78 1 7.85379 15.9927 5.13821 
79 1 10.5694 13.265 5.13819 
80 1 10.5694 15.9927 2.42262 
81 1 11.9333 11.9191 1.07097 
82 1 11.9211 14.6346 3.78658 
83 1 14.6367 11.9191 3.77435 
84 1 14.6489 14.6346 22.7835 
85 1 13.285 13.2895 2.42262 
86 1 13.285 15.9927 5.13821 
87 1 16.0005 13.265 5.13819 
88 1 16.0006 15.9927 2.42262 
89 1 17.3645 11.9191 1.07097 
90 1 17.3523 14.6346 3.78658 
91 1 20.0679 11.9191 3.77435 
92 1 20.0801 14.6346 22.7835 
93 1 18.7161 13.2895 2.42262 
94 1 18.7161 15.9927 5.13821 
95 1 21.4317 13.265 5.13819 
96 1 21.4317 15.9927 2.42262 
97 1 1.07097 17.3503 1.07097 
98 1 22.7835 20.0658 3.78658 
99 1 3.77435 17.3503 3.77435 
100 1 3.78658 20.0658 22.7835 
101 1 2.42262 18.7206 2.42262 
102 1 2.42262 21.4239 5.13821 
103 1 5.13819 18.6962 5.13819 
104 1 5.13821 21.4239 2.42262 
105 1 6.50215 17.3503 1.07097 
106 1 6.48994 20.0658 3.78658 
107 1 9.20552 17.3503 3.77435 
108 1 9.21775 20.0658 22.7835 
109 1 7.85379 18.7206 2.42262 
110 1 7.85379 21.4239 5.13821 
111 1 10.5694 18.6962 5.13819 
112 1 10.5694 21.4239 2.42262 
113 1 11.9333 17.3503 1.07097 
114 1 11.9211 20.0658 3.78658 
115 1 14.6367 17.3503 3.77435 
116 1 14.6489 20.0658 22.7835 
117 1 13.285 18.7206 2.42262 
118 1 13.285 21.4239 5.13821 
119 1 16.0005 18.6962 5.13819 
120 1 16.0006 21.4239 2.42262 
121 1 17.3645 17.3503 1.07097 
122 1 17.3523 20.0658 3.78658 
123 1 20.0679 17.3503 3.77435 
124 1 20.0801 20.0658 22.7835 
125 1 18.7161 18.7206 2.42262 
126 1 18.7161 21.4239 5.13821 
127 1 21.4317 18.6962 5.13819 
128 1 21.4317 21.4239 2.42262 
129 1 1.07097 22.7815 6.50215 
130 1 22.7835 3.77226 9.21775 
131 1 3.77435 22.7814 9.20552 
132 1 3.78658 3.77226 6.48994 
133 1 2.42262 2.42713 7.85379 
134 1 2.42262 5.13035 10.5694 
135 1 5.13819 2.40267 10.5694 
136 1 5.13821 5.13035 7.85379 
137 1 6.50215 22.7815 6.50215 
138 1 6.48994 3.77226 9.21775 
139 1 9.20552 22.7814 9.20552 
140 1 9.21775 3.77226 6.48994 
141 1 7.85379 2.42713 7.85379 
142 1 7.85379 5.13035 10.5694 
143 1 10.5694 2.40267 10.5694 
144 1 10.5694 5.13035 7.85379 
145 1 11.9333 22.7815 6.50215 
146 1 11.9211 3.77226 9.21775 
147 1 14.6367 22.7814 9.20552 
148 1 14.6489 3.77226 6.48994 
149 1 13.285 2.42713 7.85379 
150 1 13.285 5.13035 10.5694 
151 1 16.0005 2.40267 10.5694 
152 1 16.0006 5.13035 7.85379 
153 1 17.3645 22.7815 6.50215 
154 1 17.3523 3.77226 9.21775 
155 1 20.0679 22.7814 9.20552 
156 1 20.0801 3.77226 6.48994 
157 1 18.7161 2.42713 7.85379 
158 1 18.7161 5.13035 10.5694 
159 1 21.4317 2.40267 10.5694 
160 1 21.4317 5.13035 7.85379 
161 1 1.07097 6.48795 6.50215 
162 1 22.7835 9.20343 9.21775 
163 1 3.77435 6.48792 9.20552 
164 1 3.78658 9.20343 6.48994 
165 1 2.42262 7.8583 7.85379 
166 1 2.42262 10.5615 10.5694 
167 1 5.13819 7.83385 10.5694 
168 1 5.13821 10.5615 7.85379 
169 1 6.50215 6.48795 6.50215 
170 1 6.48994 9.20343 9.21775 
171 1 9.20552 6.48792 9.20552 
172 1 9.21775 9.20343 6.48994 
173 1 7.85379 7.8583 7.85379 
174 1 7.85379 10.5615 10.5694 
175 1 10.5694 7.83385 10.5694 
176 1 10.5694 10.5615 7.85379 
177 1 11.9333 6.48795 6.50215 
178 1 11.9211 9.20343 9.21775 
179 1 14.6367 6.48792 9.20552 
180 1 14.6489 9.20343 6.48994 
181 1 13.285 7.8583 7.85379 
182 1 13.285 10.5615 10.5694 
183 1 16.0005 7.83385 10.5694 
184 1 16.0006 10.5615 7.85379 
185 1 17.3645 6.48795 6.50215 
186 1 17.3523 9.20343 9.21775 
187 1 20.0679 6.48792 9.20552 
188 1 20.0801 9.20343 6.48994 
189 1 18.7161 7.8583 7.85379 
190 1 18.7161 10.5615 10.5694 
191 1 21.4317 7.83385 10.5694 
192 1 21.4317 10.5615 7.85379 
193 1 1.07097 11.9191 6.50215 
194 1 22.7835 14.6346 9.21775 
195 1 3.77435 11.9191 9.20552 
196 1 3.78658 14.6346 6.48994 
197 1 2.42262 13.2895 7.85379 
198 1 2.42262 15.9927 10.5694 
199 1 5.13819 13.265 10.5694 
200 1 5.13821 15.9927 7.85379 
201 1 6.50215 11.9191 6.50215 
202 1 6.48994 14.6346 9.21775 
203 1 9.20552 11.9191 9.20552 
204 1 9.21775 14.6346 6.48994 
205 1 7.85379 13.2895 7.85379 
206 1 7.85379 15.9927 10.5694 
207 1 10.5694 13.265 10.5694 
208 1 10.5694 15.9927 7.85379 
209 1 11.9333 11.9191 6.50215 
210 1 11.9211 14.6346 9.21775 
211 1 14.6367 11.9191 9.20552 
212 1 14.6489 14.6346 6.48994 
213 1 13.285 13.2895 7.85379 
214 1 13.285 15.9927 10.5694 
215 1 16.0005 13.265 10.5694 
216 1 16.0006 15.9927 7.85379 
217 1 17.3645 11.9191 6.50215 
218 1 17.3523 14.6346 9.21775 
219 1 20.0679 11.9191 9.20552 
220 1 20.0801 14.6346 6.48994 
221 1 18.7161 13.2895 7.85379 
222 1 18.7161 15.9927 10.5694 
223 1 21.4317 13.265 10.5694 
224 1 21.4317 15.9927 7.85379 
225 1 1.07097 17.3503 6.50215 
226 1 22.7835 20.0658 9.21775 
227 1 3.77435 17.3503 9.20552 
228 1 3.78658 20.0658 6.48994 
229 1 2.42262 18.7206 7.85379 
230 1 2.42262 21.4239 10.5694 
231 1 5.13819 18.6962 10.5694 
232 1 5.13821 21.4239 7.85379 
233 1 6.50215 17.3503 6.50215 
234 1 6.48994 20.0658 9.21775 
235 1 9.20552 17.3503 9.20552 
236 1 9.21775 20.0658 6.48994 
237 1 7.85379 18.7206 7.85379 
238 1 7.85379 21.4239 10.5694 
239 1 10.5694 18.6962 10.5694 
240 1 10.5694 21.4239 7.85379 
241 1 11.9333 17.3503 6.50215 
242 1 11.9211 20.0658 9.21775 
243 1 14.6367 17.3503 9.20552 
244 1 14.6489 20.0658 6.48994 
245 1 13.285 18.7206 7.85379 
246 1 13.285 21.4239 10.5694 
247 1 16.0005 18.6962 10.5694 
248 1 16.0006 21.4239 7.85379 
249 1 17.3645 17.3503 6.50215 
250 1 17.3523 20.0658 9.21775 
251 1 20.0679 17.3503 9.20552 
252 1 20.0801 20.0658 6.48994 
253 1 18.7161 18.7206 7.85379 
254 1 18.7161 21.4239 10.5694 
255 1 21.4317 18.6962 10.5694 
256 1 21.4317 21.4239 7.85379 
257 1 1.07097 22.7815 11.9333 
258 1 22.7835 3.77226 14.6489 
259 1 3.77435 22.7814 14.6367 
260 1 3.78658 3.77226 11.9211 
261 1 2.42262 2.42713 13.285 
262 1 2.42262 5.13035 16.0006 
263 1 5.13819 2.40267 16.0005 
264 1 5.13821 5.13035 13.285 
265 1 6.50215 22.7815 11.9333 
266 1 6.48994 3.77226 14.6489 
267 1 9.20552 22.7814 14.6367 
268 1 9.21775 3.77226 11.9211 
269 1 7.85379 2.42713 13.285 
270 1 7.85379 5.13035 16.0006 
271 1 10.5694 2.40267 16.0005 
272 1 10.5694 5.13035 13.285 
273 1 11.9333 22.7815 11.9333 
274 1 11.9211 3.77226 14.6489 
275 1 14.6367 22.7814 14.6367 
276 1 14.6489 3.77226 11.9211 
277 1 13.285 2.42713 13.285 
278 1 13.285 5.13035 16.0006 
279 1 16.0005 2.40267 16.0005 
280 1 16.0006 5.13035 13.285 
281 1 17.3645 22.7815 11.9333 
282 1 17.3523 3.77226 14.6489 
283 1 20.0679 22.7814 14.6367 
284 1 20.0801 3.77226 11.9211 
285 1 18.7161 2.42713 13.285 
286 1 18.7161 5.13035 16.0006 
287 1 21.4317 2.40267 16.0005 
288 1 21.4317 5.13035 13.285 
289 1 1.07097 6.48795 11.9333 
290 1 22.7835 9.20343 14.6489 
291 1 3.77435 6.48792 14.6367 
292 1 3.78658 9.20343 11.9211 
293 1 2.42262 7.8583 13.285 
294 1 2.42262 10.5615 16.0006 
295 1 5.13819 7.83385 16.0005 
296 1 5.13821 10.5615 13.285 
297 1 6.50215 6.48795 11.9333 
298 1 6.48994 9.20343 14.6489 
299 1 9.20552 6.48792 14.6367 
300 1 9.21775 9.20343 11.9211 
301 1 7.85379 7.8583 13.285 
302 1 7.85379 10.5615 16.0006 
303 1 10.5694 7.83385 16.0005 
304 1 10.5694 10.5615 13.285 
305 1 11.9333 6.48795 11.9333 
306 1 11.9211 9.20343 14.6489 
307 1 14.6367 6.48792 14.6367 
308 1 14.6489 9.20343 11.9211 
309 1 13.285 7.8583 13.285 
310 1 13.285 10.5615 16.0006 
311 1 16.0005 7.83385 16.0005 
312 1 16.0006 10.5615 13.285 
313 1 17.3645 6.48795 11.9333 
314 1 17.3523 9.20343 14.6489 
315 1 20.0679 6.48792 14.6367 
316 1 20.0801 9.20343 11.9211 
317 1 18.7161 7.8583 13.285 
318 1 18.7161 10.5615 16.0006 
319 1 21.4317 7.83385 16.0005 
320 1 21.4317 10.5615 13.285 
321 1 1.07097 11.9191 11.9333 
322 1 22.7835 14.6346 14.6489 
323 1 3.77435 11.9191 14.6367 
324 1 3.78658 14.6346 11.9211 
325 1 2.42262 13.2895 13.285 
326 1 2.42262 15.9927 16.0006 
327 1 5.13819 13.265 16.0005 
328 1 5.13821 15.9927 13.285 
329 1 6.50215 11.9191 11.9333 
330 1 6.48994 14.6346 14.6489 
331 1 9.20552 11.9191 14.6367 
332 1 9.21775 14.6346 11.9211 
333 1 7.85379 13.2895 13.285 
334 1 7.85379 15.9927 16.0006 
335 1 10.5694 13.265 16.0005 
336 1 10.5694 15.9927 13.285 
337 1 11.9333 11.9191 11.9333 
338 1 11.9211 14.6346 14.6489 
339 1 14.6367 11.9191 14.6367 
340 1 14.6489 14.6346 11.9211 
341 1 13.285 13.2895 13.285 
342 1 13.285 15.9927 16.0006 
343 1 16.0005 13.265 16.0005 
344 1 16.0006 15.9927 13.285 
345 1 17.3645 11.9191 11.9333 
346 1 17.3523 14.6346 14.6489 
347 1 20.0679 11.9191 14.6367 
348 1 20.0801 14.6346 11.9211 
349 1 18.7161 13.2895 13.285 
350 1 18.7161 15.9927 16.0006 
351 1 21.4317 13.265 16.0005 
352 1 21.4317 15.9927 13.285 
353 1 1.07097 17.3503 11.9333 
354 1 22.7835 20.0658 14.6489 
355 1 3.77435 17.3503 14.6367 
356 1 3.78658 20.0658 11.9211 
357 1 2.42262 18.7206 13.285 
358 1 2.42262 21.4239 16.0006 
359 1 5.13819 18.6962 16.0005 
360 1 5.13821 21.4239 13.285 
361 1 6.50215 17.3503 11.9333 
362 1 6.48994 20.0658 14.6489 
363 1 9.20552 17.3503 14.6367 
364 1 9.21775 20.0658 11.9211 
365 1 7.85379 18.7206 13.285 
366 1 7.85379 21.4239 16.0006 
367 1 10.5694 18.6962 16.0005 
368 1 10.5694 21.4239 13.285 
369 1 11.9333 17.3503 11.9333 
370 1 11.9211 20.0658 14.6489 
371 1 14.6367 17.3503 14.6367 
372 1 14.6489 20.0658 11.9211 
373 1 13.285 18.7206 13.285 
374 1 13.285 21.4239 16.0006 
375 1 16.0005 18.6962 16.0005 
376 1 16.0006 21.4239 13.285 
377 1 17.3645 17.3503 11.9333 
378 1 17.3523 20.0658 14.6489 
379 1 20.0679 17.3503 14.6367 
380 1 20.0801 20.0658 11.9211 
381 1 18.7161 18.7206 13.285 
382 1 18.7161 21.4239 16.0006 
383 1 21.4317 18.6962 16.0005 
384 1 21.4317 21.4239 13.285 
385 1 1.07097 22.7815 17.3645 
386 1 22.7835 3.77226 20.0801 
387 1 3.77435 22.7814 20.0679 
388 1 3.78658 3.77226 17.3523 
389 1 2.42262 2.42713 18.7161 
390 1 2.42262 5.13035 21.4317 
391 1 5.13819 2.40267 21.4317 
392 1 5.13821 5.13035 18.7161 
393 1 6.50215 22.7815 17.3645 
394 1 6.48994 3.77226 20.0801 
395 1 9.20552 22.7814 20.0679 
396 1 9.21775 3.77226 17.3523 
397 1 7.85379 2.42713 18.7161 
398 1 7.85379 5.13035 21.4317 
399 1 10.5694 2.40267 21.4317 
400 1 10.5694 5.13035 18.7161 
401 1 11.9333 22.7815 17.3645 
402 1 11.9211 3.77226 20.0801 
403 1 14.6367 22.7814 20.0679 
404 1 14.6489 3.77226 17.3523 
405 1 13.285 2.42713 18.7161 
406 1 13.285 5.13035 21.4317 
407 1 16.0005 2.40267 21.4317 
408 1 16.0006 5.13035 18.7161 
409 1 17.3645 22.7815 17.3645 
410 1 17.3523 3.77226 20.0801 
411 1 20.0679 22.7814 20.0679 
412 1 20.0801 3.77226 17.3523 
413 1 18.7161 2.42713 18.7161 
414 1 18.7161 5.13035 21.4317 
415 1 21.4317 2.40267 21.4317 
416 1 21.4317 5.13035 18.7161 
417 1 1.07097 6.48795 17.3645 
418 1 22.7835 9.20343 20.0801 
419 1 3.77435 6.48792 20.0679 
420 1 3.78658 9.20343 17.3523 
421 1 2.42262 7.8583 18.7161 
422 1 2.42262 10.5615 21.4317 
423 1 5.13819 7.83385 21.4317 
424 1 5.13821 10.5615 18.7161 
425 1 6.50215 6.48795 17.3645 
426 1 6.48994 9.20343 20.0801 
427 1 9.20552 6.48792 20.0679 
428 1 9.21775 9.20343 17.3523 
429 1 7.85379 7.8583 18.7161 
430 1 7.85379 10.5615 21.4317 
431 1 10.5694 7.83385 21.4317 
432 1 10.5694 10.5615 18.7161 
433 1 11.9333 6.48795 17.3645 
434 1 11.9211 9.20343 20.0801 
435 1 14.6367 6.48792 20.0679 
436 1 14.6489 9.20343 17.3523 
437 1 13.285 7.8583 18.7161 
438 1 13.285 10.5615 21.4317 
439 1 16.0005 7.83385 21.4317 
440 1 16.0006 10.5615 18.7161 
441 1 17.3645 6.48795 17.3645 
442 1 17.3523 9.20343 20.0801 
443 1 20.0679 6.48792 20.0679 
444 1 20.0801 9.20343 17.3523 
445 1 18.7161 7.8583 18.7161 
446 1 18.7161 10.5615 21.4317 
447 1 21.4317 7.83385 21.4317 
448 1 21.4317 10.5615 18.7161 
449 1 1.07097 11.9191 17.3645 
450 1 22.7835 14.6346 20.0801 
451 1 3.77435 11.9191 20.0679 
452 1 3.78658 14.6346 17.3523 
453 1 2.42262 13.2895 18.7161 
454 1 2.42262 15.9927 21.4317 
455 1 5.13819 13.265 21.4317 
456 1 5.13821 15.9927 18.7161 
457 1 6.50215 11.9191 17.3645 
458 1 6.48994 14.6346 20.0801 
459 1 9.20552 11.9191 20.0679 
460 1 9.21775 14.6346 17.3523 
461 1 7.85379 13.2895 18.7161 
462 1 7.85379 15.9927 21.4317 
463 1 10.5694 13.265 21.4317 
464 1 10.5694 15.9927 18.7161 
465 1 11.9333 11.9191 17.3645 
466 1 11.9211 14.6346 20.0801 
467 1 14.6367 11.9191 20.0679 
468 1 14.6489 14.6346 17.3523 
469 1 13.285 13.2895 18.7161 
470 1 13.285 15.9927 21.4317 
471 1 16.0005 13.265 21.4317 
472 1 16.0006 15.9927 18.7161 
473 1 17.3645 11.9191 17.3645 
474 1 17.3523 14.6346 20.0801 
475 1 20.0679 11.9191 20.0679 
476 1 20.0801 14.6346 17.3523 
477 1 18.7161 13.2895 18.7161 
478 1 18.7161 15.9927 21.4317 
479 1 21.4317 13.265 21.4317 
480 1 21.4317 15.9927 18.7161 
481 1 1.07097 17.3503 17.3645 
482 1 22.7835 20.0658 20.0801 
483 1 3.77435 17.3503 20.0679 
484 1 3.78658 20.0658 17.3523 
485 1 2.42262 18.7206 18.7161 
486 1 2.42262 21.4239 21.4317 
487 1 5.13819 18.6962 21.4317 